ITEM: TIMESTEP
1000000
ITEM: NUMBER OF ATOMS
10000
ITEM: BOX BOUNDS pp pp ff
0.0000000000000000e+00 6.1820293500000001e-01
0.0000000000000000e+00 6.1820293500000001e-01
-1.2500000000000001e-02 1.2500000000000001e-02
ITEM: ATOMS type x y z vx vy vz radius id
1 0.0728967 0.343657 0.00163413 0.0139518 -0.00967173 -0.0357664 0.00125 1
1 0.401821 0.399149 0.00242715 0.00564616 -0.00222295 -0.00562824 0.00125 2
1 0.576481 0.451345 0.0013643 -0.00185547 -0.00385867 0.161366 0.00125 3
1 0.0707537 0.208613 0.0012939 -0.00878408 -0.00140043 -0.247045 0.00125 4
1 0.514543 0.48957 0.00148782 0.00358732 0.00152293 -0.230359 0.00125 5
1 0.0174386 0.546501 0.00191677 0.00734706 0.00612165 -0.071464 0.00125 6
1 0.579553 0.561342 0.00219845 -0.0107803 0.00712777 -0.052397 0.00125 7
1 0.137598 0.506372 0.00241206 -0.0155405 0.0102678 0.0312819 0.00125 8
1 0.164332 0.34925 0.00177759 -0.000150593 -0.0224438 -0.172903 0.00125 9
1 0.292922 0.481763 0.00127902 -0.000377717 -0.00858751 -0.231934 0.00125 10
1 0.438835 0.449977 0.00123972 0.0153096 -0.00474015 -0.203336 0.00125 11
1 0.430916 0.407359 0.00172444 0.00113424 0.0038428 -0.0828967 0.00125 12
1 0.00852315 0.354353 0.00148893 0.00654139 0.00515083 0.115765 0.00125 13
1 0.459174 0.186184 0.00151574 0.016233 -0.00453373 -0.0897428 0.00125 14
1 0.441862 0.429807 0.00200384 0.00215076 0.0127685 -0.010284 0.00125 15
1 0.227655 0.276139 0.00170174 -0.00511327 0.0032463 -0.222914 0.00125 16
1 0.392229 0.194831 0.00140157 0.000584653 -0.00547708 0.219841 0.00125 17
1 0.542116 0.590549 0.00160442 -0.0018942 -0.00741816 0.0930543 0.00125 18
1 0.0425959 0.609415 0.00147651 0.00269718 0.000100455 0.219119 0.00125 19
1 0.164368 0.325387 0.00133115 0.00114891 0.0073687 -0.235931 0.00125 20
1 0.0477973 0.58185 0.00159737 0.0149899 -0.00437829 0.0507676 0.00125 21
1 0.596115 0.583704 0.00195327 -9.48074e-05 -0.0166524 -0.234703 0.00125 22
1 0.216105 0.322223 0.00179423 0.0113726 -0.00316932 -0.217931 0.00125 23
1 0.0961719 0.117022 0.00131347 -0.00471407 -0.00802942 0.0980296 0.00125 24
1 0.331167 0.0650344 0.00172157 -0.010035 0.00272049 -0.0836465 0.00125 25
1 0.236904 0.282458 0.00123325 0.0095777 -5.56674e-05 0.12764 0.00125 26
1 0.258111 0.119018 0.00123534 -0.00178397 -0.0004294 -0.1651 0.00125 27
1 0.0448099 0.493508 0.0013265 -0.00569187 -0.00246788 -0.224963 0.00125 28
1 0.0760293 0.397991 0.00143882 0.00299433 -0.00704077 -0.231677 0.00125 29
1 0.165121 0.468058 0.00132185 -0.000358844 0.012761 -0.0199238 0.00125 30
1 0.418049 0.538905 0.001255 0.00353347 -0.0156643 -0.247688 0.00125 31
1 0.547669 0.270289 0.00173812 -0.0106462 -0.00334122 -0.223898 0.00125 32
1 0.365075 0.459035 0.00136653 0.00197488 0.0224275 0.253987 0.00125 33
1 0.136741 0.140427 0.00166878 -0.0223781 0.0106932 -0.0918332 0.00125 34
1 0.183574 0.407935 0.00144814 0.00358753 0.00796157 -0.246874 0.00125 35
1 0.462878 0.0622834 0.00171883 0.00416413 0.00134631 0.0666042 0.00125 36
1 0.588202 0.0526777 0.00132833 0.00704603 -0.0185032 0.172643 0.00125 37
1 0.513623 0.546224 0.00228125 0.00872442 -0.00222552 -0.0417964 0.00125 38
1 0.511859 0.44796 0.00128717 -0.00611761 -0.00597956 0.1892 0.00125 39
1 0.159183 0.0753394 0.00155667 -0.0145572 -0.0149293 -0.230658 0.00125 40
1 0.375276 0.502858 0.00153381 -0.0184877 -0.0253472 0.138297 0.00125 41
1 0.190614 0.0732995 0.00174811 -0.0116504 -0.0118081 -0.201702 0.00125 42
1 0.365216 0.393754 0.00149918 -0.00336847 0.00576289 -0.0937614 0.00125 43
1 0.276471 0.30273 0.00146719 -0.0122408 0.0154756 0.207822 0.00125 44
1 0.554851 0.0528486 0.00125702 -0.0083984 0.00323511 -0.23118 0.00125 45
1 0.532839 0.356339 0.00155612 -0.00254912 -0.000610105 -0.230918 0.00125 46
1 0.401175 0.55043 0.00179678 0.000296696 0.0130416 0.0994479 0.00125 47
1 0.321308 0.106678 0.00247149 0.000503597 -0.0204011 -0.0370287 0.00125 48
1 0.534984 0.0588434 0.0013003 4.47127e-05 0.00650253 0.207615 0.00125 49
1 0.231962 0.568435 0.00142675 -0.00567111 -0.00225232 -0.227584 0.00125 50
1 0.0561642 0.088373 0.0013353 -0.00809032 0.0164395 0.170107 0.00125 51
1 0.00199825 0.0246669 0.00136269 0.00241013 -0.0101862 0.25368 0.00125 52
1 0.286453 0.3537 0.00142681 0.00310962 -0.00786165 0.103039 0.00125 53
1 0.295014 0.578038 0.00132918 -0.00151739 -0.00295116 0.175618 0.00125 54
1 0.381486 0.16647 0.00137518 0.0118063 -0.00547608 0.161714 0.00125 55
1 0.196286 0.50356 0.00123747 -0.00061448 -0.00180288 0.168753 0.00125 56
1 0.533905 0.250542 0.00153699 -0.00425811 -0.00159044 0.0967578 0.00125 57
1 0.197375 0.180602 0.00234547 -0.0161129 0.00546566 -0.0434006 0.00125 58
1 0.271932 0.529799 0.00213629 -0.00178464 -0.000210038 -0.0572334 0.00125 59
1 0.28166 0.0565131 0.00134476 -0.00499037 -0.00190068 -0.203633 0.00125 60
1 0.110384 0.547784 0.00173457 -0.00077528 -0.00901933 -0.0820726 0.00125 61
1 0.203884 0.48042 0.00136178 -0.0125499 -0.00813297 -0.235654 0.00125 62
1 0.315948 0.129378 0.00249029 0.00708258 -0.00515887 -0.0345368 0.00125 63
1 0.0578018 0.615348 0.00125407 -0.000525555 0.0059374 -0.316733 0.00125 64
1 0.357521 0.555574 0.00129683 0.00235209 0.00797204 -0.239841 0.00125 65
1 0.187244 0.225309 0.00138165 -0.00990747 -0.0174286 0.251541 0.00125 66
1 0.461574 0.233698 0.00183093 0.00615246 0.000221413 -0.0836224 0.00125 67
1 0.101086 0.11105 0.00170278 -0.0172773 0.000186952 -0.225437 0.00125 68
1 0.485282 0.0203995 0.00140986 0.00606745 0.00541437 -0.245901 0.00125 69
1 0.232893 0.143248 0.00135983 -0.00740061 -0.00360174 -0.238368 0.00125 70
1 0.475102 0.168547 0.00235777 0.0130864 0.0141791 -0.0484575 0.00125 71
1 0.425876 0.0697494 0.00159048 -0.00635432 0.0152673 0.0906085 0.00125 72
1 0.616793 0.0160976 0.00157633 -0.00813547 0.00257657 -0.234406 0.00125 73
1 0.427386 0.278008 0.00152186 0.0135287 0.00079598 0.108909 0.00125 74
1 0.440049 0.447186 0.0016469 -0.00414491 0.00442893 -0.23044 0.00125 75
1 0.517627 0.469143 0.00235396 0.0185723 -0.00235432 -0.0635603 0.00125 76
1 0.0730398 0.0499308 0.00219056 0.008595 0.00519064 -0.053307 0.00125 77
1 0.534205 0.555298 0.00179087 0.00485654 0.0031904 -0.172855 0.00125 78
1 0.327322 0.5495 0.00162518 -0.00241654 0.000873225 -0.169572 0.00125 79
1 0.0365286 0.088402 0.00135201 -0.00273462 0.00197935 -0.240268 0.00125 80
1 0.455326 0.496851 0.0014139 -0.0123372 -0.0122565 0.2521 0.00125 81
1 0.190418 0.0102281 0.0020062 0.0145963 -0.00403144 -0.22723 0.00125 82
1 0.228891 0.392723 0.00138742 -0.00830428 -0.0137573 -0.19327 0.00125 83
1 0.17935 0.382722 0.00127741 0.00412861 -0.0132141 0.24067 0.00125 84
1 0.148286 0.41972 0.00138681 0.000301117 0.00542974 -0.186859 0.00125 85
1 0.592972 0.438771 0.00197127 0.0273118 0.0269899 -0.0685663 0.00125 86
1 0.357634 0.389764 0.00238684 0.0183027 0.0075567 -0.100644 0.00125 87
1 0.584101 0.445357 0.00162584 0.00220361 0.0148306 -0.18024 0.00125 88
1 0.364276 0.0948581 0.00156609 -0.00636265 -0.00172954 -0.0743923 0.00125 89
1 0.0671191 0.374418 0.00128024 6.56767e-05 0.00510833 -0.190299 0.00125 90
1 0.0452184 0.192103 0.00239662 0.0125991 -0.00208862 -0.0404476 0.00125 91
1 0.222557 0.421975 0.00132686 -0.00204165 -0.0134008 -0.220358 0.00125 92
1 0.316487 0.213974 0.00181631 0.00555906 -0.00852182 0.122874 0.00125 93
1 0.327858 0.54047 0.00137021 -0.00177287 0.00479624 0.161344 0.00125 94
1 0.595971 0.41501 0.00130152 0.0191169 0.029684 0.234538 0.00125 95
1 0.463509 0.591762 0.00133587 -0.00652779 0.00699337 0.229472 0.00125 96
1 0.496945 0.388079 0.00174178 -0.00677551 -0.0104788 0.116589 0.00125 97
1 0.169919 0.00419111 0.0016257 0.0173333 0.0232808 -0.0877929 0.00125 98
1 0.34168 0.365249 0.00143817 -0.00266015 -0.00366905 -0.245596 0.00125 99
1 0.250427 0.566282 0.00123295 0.00174867 -0.00816741 -0.124668 0.00125 100
1 0.0585044 0.4871 0.00177048 0.00348988 -0.00379198 0.140192 0.00125 101
1 0.475596 0.0577294 0.00136598 0.00214647 -0.00243464 -0.202345 0.00125 102
1 0.2621 0.344503 0.00167297 -0.00332445 0.00123905 -0.223407 0.00125 103
1 0.50997 0.104527 0.00142998 -0.00753499 0.00227181 0.218771 0.00125 104
1 0.400986 0.147519 0.00168297 -0.0101673 0.000853875 0.0581538 0.00125 105
1 0.123951 0.246852 0.00124411 -0.0135125 0.00784182 -0.221143 0.00125 106
1 0.526505 0.141211 0.00163572 0.000371689 0.00275141 -0.250617 0.00125 107
1 0.121767 0.383329 0.00129772 0.0119023 0.011534 -0.232825 0.00125 108
1 0.585555 0.467878 0.00251498 0.00249335 0.00945238 -0.0537535 0.00125 109
1 0.501822 0.496517 0.00138425 0.00323363 -0.0139762 -0.23921 0.00125 110
1 0.219297 0.550768 0.00139278 -0.016411 -0.0120642 -0.224083 0.00125 111
1 0.345692 0.0289579 0.00126631 0.0133986 0.00943693 0.210984 0.00125 112
1 0.00808231 0.603673 0.00217347 -0.00242545 0.0094843 -0.0487704 0.00125 113
1 0.0648162 0.272338 0.00140605 0.0144486 0.0115205 0.134188 0.00125 114
1 0.225621 0.242075 0.00133327 -0.00244047 0.00733168 0.188563 0.00125 115
1 0.0185896 0.276005 0.00196273 0.00117468 -0.00245406 -0.0800421 0.00125 116
1 0.106203 0.291887 0.00215122 -0.00107702 -0.00349193 -0.0712609 0.00125 117
1 0.355837 0.129331 0.00131402 0.000688493 -0.00708219 0.198263 0.00125 118
1 0.173056 0.438632 0.00151987 -0.00629046 -0.000796529 -0.0611786 0.00125 119
1 0.191439 0.162888 0.00183391 -0.00447867 0.00554414 -0.0759961 0.00125 120
1 0.483642 0.362027 0.00122414 -0.00423118 -0.0100154 0.0318347 0.00125 121
1 0.335071 0.0661493 0.00194792 0.000138991 -0.00966413 -0.0102984 0.00125 122
1 0.151196 0.44526 0.00131224 -0.00245406 -0.00452493 -0.233796 0.00125 123
1 0.401047 0.477145 0.00126823 -0.00783135 -0.00584789 -0.23823 0.00125 124
1 0.31196 0.599967 0.00138476 0.00518868 -0.0195948 -0.277117 0.00125 125
1 0.0181885 0.441129 0.0014786 -0.0143802 -0.005181 -0.232079 0.00125 126
1 0.0638011 0.192693 0.00146666 0.00118246 -0.00682848 -0.239606 0.00125 127
1 0.212433 0.318753 0.00137631 0.00195554 0.0010404 0.25027 0.00125 128
1 0.484749 0.379848 0.00177719 0.0230543 -0.0105664 -0.215341 0.00125 129
1 0.582515 0.089817 0.00159695 -0.0104971 0.00265443 0.0966177 0.00125 130
1 0.328291 0.121079 0.00131329 0.00742494 0.0153275 -0.238724 0.00125 131
1 0.468727 0.29122 0.0012303 -0.0111768 -0.0159143 -0.0997011 0.00125 132
1 0.0897914 0.0401173 0.00247091 0.00246886 0.00361163 -0.063921 0.00125 133
1 0.159598 0.505524 0.00139598 -0.00783266 -0.000370599 -0.200415 0.00125 134
1 0.480693 0.321196 0.00152583 -0.000832645 0.00528714 -0.230445 0.00125 135
1 0.145092 0.293757 0.00123415 -0.00130528 0.00300062 -0.146485 0.00125 136
1 0.388662 0.234946 0.00227244 0.00495954 -0.00399985 -0.0438919 0.00125 137
1 0.179087 0.167299 0.00127378 -0.0150938 -0.00401882 0.1906 0.00125 138
1 0.21804 0.182993 0.00141886 -0.00724393 0.0261916 0.221147 0.00125 139
1 0.197037 0.0927108 0.00247881 -0.0060556 -0.00403309 0.0258364 0.00125 140
1 0.261624 0.22766 0.00147589 0.00621123 0.00210344 -0.247492 0.00125 141
1 0.10722 0.44493 0.00125036 -0.000606447 0.0151114 -0.306752 0.00125 142
1 0.455753 0.433624 0.00134127 0.00806568 0.0016389 -0.236351 0.00125 143
1 0.133247 0.129157 0.00233374 0.00208983 -0.00425005 -0.124233 0.00125 144
1 0.558576 0.328533 0.00137001 -0.00975456 -0.00704449 0.166435 0.00125 145
1 0.365718 0.0986363 0.00234352 -0.00740464 -0.00531527 -0.0487745 0.00125 146
1 0.602507 0.351309 0.00149351 0.00684065 0.00638152 -0.0910729 0.00125 147
1 0.60404 0.310833 0.00144687 -0.000882164 -0.00489791 0.129558 0.00125 148
1 0.392311 0.33996 0.00134209 0.00832037 -0.0187484 -0.18727 0.00125 149
1 0.234539 0.088698 0.00144022 0.0101495 0.00775702 -0.300985 0.00125 150
1 0.519553 0.491264 0.00132104 -0.0182808 0.000136607 0.178299 0.00125 151
1 0.213939 0.208708 0.00135027 0.0158668 0.00634997 -0.251033 0.00125 152
1 0.0389514 0.222874 0.00146942 0.00112283 0.00199581 0.111625 0.00125 153
1 0.415215 0.125917 0.00123573 -0.000520404 0.00478452 0.211421 0.00125 154
1 0.407174 0.100737 0.00153674 -0.00380877 -0.035316 -0.20078 0.00125 155
1 0.455832 0.501655 0.00213017 0.0197664 0.0338299 -0.0652923 0.00125 156
1 0.559636 0.0425901 0.00127871 -0.00200164 -0.00873492 0.188086 0.00125 157
1 0.398392 0.260828 0.00206482 -0.00723122 0.000232067 -0.189752 0.00125 158
1 0.589916 0.0445846 0.0013407 5.43079e-05 -0.000479636 -0.251068 0.00125 159
1 0.112864 0.000652849 0.00124683 -0.00527874 0.00183004 0.193273 0.00125 160
1 0.22031 0.00221054 0.00233201 -0.00979824 0.0242307 -0.118314 0.00125 161
1 0.208624 0.123156 0.00124832 0.00961755 -0.0135856 0.180723 0.00125 162
1 0.396595 0.485735 0.00127988 0.00341825 -0.000287462 0.158182 0.00125 163
1 0.616722 0.280099 0.00145062 0.0144756 6.4289e-05 -0.240584 0.00125 164
1 0.466182 0.490235 0.00178816 0.000955323 -0.00784876 -0.215331 0.00125 165
1 0.276605 0.370742 0.00251701 0.00385816 0.00620078 -0.019583 0.00125 166
1 0.0920593 0.463818 0.00146696 0.00723155 0.000865648 0.131516 0.00125 167
1 0.557207 0.485553 0.00131321 0.00189373 -0.00985217 0.178414 0.00125 168
1 0.60048 0.59967 0.00185355 -0.00165434 0.0172374 -0.0861081 0.00125 169
1 0.219189 0.364826 0.00135967 0.00202951 0.00240807 -0.202382 0.00125 170
1 0.201001 0.144556 0.00126583 0.00568543 0.0109549 0.217782 0.00125 171
1 0.357763 0.440906 0.00141674 -0.00365476 0.00129237 -0.0996848 0.00125 172
1 0.0337448 0.552261 0.00195015 -0.01283 0.00862428 -0.0692875 0.00125 173
1 0.453443 0.330111 0.00181331 -0.00747412 0.00337033 0.116 0.00125 174
1 0.528726 0.5167 0.00129764 -0.000383937 -0.0139208 -0.25269 0.00125 175
1 0.311999 0.597173 0.00175757 0.00525949 -0.0222986 -0.257126 0.00125 176
1 0.106976 0.120437 0.00197158 0.0006624 0.00652082 -0.0664517 0.00125 177
1 0.0892237 0.512359 0.00177015 0.0170939 -0.00188085 -0.0887156 0.00125 178
1 0.548214 0.461343 0.00135796 -0.000348845 -0.00767189 0.191411 0.00125 179
1 0.580284 0.40047 0.00142386 0.00577816 0.0229991 0.218345 0.00125 180
1 0.223525 0.286845 0.00131971 0.0096212 -0.0034669 -0.224832 0.00125 181
1 0.00638237 0.481579 0.00178232 -0.0134298 0.00584198 -0.220323 0.00125 182
1 0.244023 0.526342 0.00130448 -0.00704183 0.00811167 0.0435455 0.00125 183
1 0.362552 0.468591 0.00129732 0.00147482 0.00146082 0.0238647 0.00125 184
1 0.0195002 0.0799269 0.00151586 0.00914049 0.00794086 -0.231875 0.00125 185
1 0.574269 0.210391 0.00158391 -0.00890985 -0.0015153 -0.176121 0.00125 186
1 0.0756741 0.0915037 0.00138157 0.0069805 -0.0136325 0.184595 0.00125 187
1 0.253214 0.162298 0.00126758 -0.00132924 -0.00373933 -0.116533 0.00125 188
1 0.362206 0.452767 0.00175273 0.000582023 -0.0209557 0.127604 0.00125 189
1 0.00553416 0.0988278 0.00143026 0.00452807 -0.00767953 0.141783 0.00125 190
1 0.472705 0.172619 0.00143134 -0.00997187 -0.00643154 0.234724 0.00125 191
1 0.180923 0.408181 0.00233442 -5.46079e-05 -0.00288563 -0.0434741 0.00125 192
1 0.478936 0.593914 0.0014687 0.00260176 0.0304769 0.204064 0.00125 193
1 0.0273986 0.0641063 0.00124735 -0.0047534 -0.000765552 0.214602 0.00125 194
1 0.209394 0.0200258 0.00130406 0.00831245 0.00276261 0.180902 0.00125 195
1 0.207187 0.46542 0.00129926 0.00396866 0.00289632 -0.232725 0.00125 196
1 0.50643 0.0814668 0.00158522 0.00253111 0.00835165 -0.176395 0.00125 197
1 0.4952 0.467163 0.00159978 -0.00835655 -0.00987348 -0.181826 0.00125 198
1 0.347248 0.182726 0.00199097 -0.016804 -0.000904733 -0.0539088 0.00125 199
1 0.0551177 0.275321 0.00161678 -0.0229661 -0.0325329 0.114186 0.00125 200
1 0.44094 0.425558 0.00176173 0.0141948 0.00309328 0.147087 0.00125 201
1 0.174236 0.163989 0.00151938 0.0179397 0.00799303 -0.192209 0.00125 202
1 0.136075 0.572934 0.00212013 -0.00629929 -0.001059 0.00288247 0.00125 203
1 0.293228 0.219236 0.00141283 -0.0264935 0.00267002 -0.232862 0.00125 204
1 0.215783 0.0373716 0.00138658 -0.00622175 -0.0126439 0.264592 0.00125 205
1 0.449352 0.220556 0.00138505 0.00511735 -0.0099952 0.222385 0.00125 206
1 0.198615 0.32404 0.00140521 0.00130031 -0.0133652 0.150333 0.00125 207
1 0.0601939 0.266117 0.00139398 -0.01648 0.0256259 -0.229306 0.00125 208
1 0.0719493 0.026944 0.00141381 -0.00598072 -0.00710066 0.109761 0.00125 209
1 0.426788 0.47034 0.00129057 0.00637634 0.0125018 0.185674 0.00125 210
1 0.462353 0.328032 0.00126255 0.00122172 -0.000806189 0.261397 0.00125 211
1 0.222538 0.368595 0.00144497 -0.012007 -0.00461896 0.166442 0.00125 212
1 0.197028 0.0614388 0.00156116 -0.00182864 0.0148039 -0.0622247 0.00125 213
1 0.4885 0.441088 0.00143683 -0.00822331 -0.01121 -0.197576 0.00125 214
1 0.328787 0.516157 0.00130556 0.0121117 0.0125899 0.270971 0.00125 215
1 0.552214 0.232361 0.00123015 0.00475252 -0.00890362 0.00860953 0.00125 216
1 0.140255 0.06216 0.00131599 0.00328461 0.00019862 -0.230291 0.00125 217
1 0.516913 0.312679 0.00129891 0.0147995 0.0147071 0.20142 0.00125 218
1 0.386738 0.1313 0.00140376 -0.00621488 0.0162582 -0.188397 0.00125 219
1 0.00724316 0.420262 0.00152731 -0.0131594 0.00605398 -0.236658 0.00125 220
1 0.0686428 0.510651 0.00163765 0.0194548 -0.00231239 0.21074 0.00125 221
1 0.422709 0.237309 0.00153015 0.0152249 -0.0077347 0.102778 0.00125 222
1 0.0912503 0.561474 0.00231644 -0.00162747 -0.00521474 -0.0628725 0.00125 223
1 0.604408 0.254295 0.00134921 0.01892 -0.00326732 -0.237515 0.00125 224
1 0.555349 0.270067 0.00156074 0.00571975 -0.00647692 -0.286649 0.00125 225
1 0.278347 0.0245916 0.00160397 -0.00167733 -0.0158023 -0.233775 0.00125 226
1 0.55967 0.585568 0.00134554 -0.00903463 -0.00851999 -0.222303 0.00125 227
1 0.551263 0.0176539 0.00131424 -0.00151148 -0.00297186 -0.235217 0.00125 228
1 0.282268 0.537429 0.00187517 -0.0121143 0.00626751 -0.0469899 0.00125 229
1 0.544131 0.0044198 0.0022644 -0.0253771 -0.00665274 -0.0324348 0.00125 230
1 0.381717 0.589025 0.00143965 -0.0031635 -0.00199508 0.169669 0.00125 231
1 0.484228 0.394009 0.00144526 0.0159897 -0.00754176 -0.301023 0.00125 232
1 0.440386 0.215807 0.00176542 -0.00248579 -0.00623698 -0.176516 0.00125 233
1 0.341052 0.178733 0.00130793 -0.0106134 0.0161995 -0.24279 0.00125 234
1 0.616152 0.221242 0.00156742 -0.0174985 -0.00103936 -0.202341 0.00125 235
1 0.472071 0.203638 0.00140682 0.00161845 -0.0157933 0.113067 0.00125 236
1 0.239292 0.358135 0.00153273 -0.00598908 0.00111631 0.0687525 0.00125 237
1 0.369826 0.475953 0.00146146 0.0117688 0.000577678 -0.243754 0.00125 238
1 0.305922 0.49831 0.00125794 0.00689893 -0.00896006 0.193901 0.00125 239
1 0.497424 0.161275 0.00203813 -0.00123628 -0.00268337 -0.023751 0.00125 240
1 0.598046 0.0465389 0.00175068 0.00924367 -0.0190677 0.0769125 0.00125 241
1 0.592959 0.327865 0.00144606 0.0173906 0.00523436 -0.197013 0.00125 242
1 0.0619894 0.0498179 0.00180388 -0.000324557 -0.0182992 -0.0774573 0.00125 243
1 0.343898 0.467973 0.00132452 -0.00339885 -0.00955494 -0.231735 0.00125 244
1 0.532315 0.128297 0.00127021 -0.00425986 -0.00939594 0.184344 0.00125 245
1 0.485352 0.174198 0.00142998 -0.00219456 0.00272069 0.103471 0.00125 246
1 0.431292 0.227817 0.0012343 0.00529659 0.000253723 -0.100875 0.00125 247
1 0.485098 0.140692 0.00147139 -0.00573369 0.0160961 -0.232085 0.00125 248
1 0.385773 0.0906152 0.00131375 -0.0220711 -0.00316964 -0.234311 0.00125 249
1 0.499273 0.317124 0.00123163 -0.00420645 0.00835574 0.0858751 0.00125 250
1 0.610445 0.530751 0.00129389 -0.00126121 0.00133174 0.179632 0.00125 251
1 0.601235 0.154987 0.00161694 0.000256515 0.00348429 -0.170462 0.00125 252
1 0.0856478 0.0996757 0.00136801 0.00782368 -0.00284639 0.160118 0.00125 253
1 0.266484 0.549066 0.00146764 -0.0040035 -0.00639612 -0.0794908 0.00125 254
1 0.57807 0.350591 0.00175256 -0.00321539 0.00707008 0.143713 0.00125 255
1 0.0931972 0.446919 0.00190303 -0.0313844 -0.007022 -0.063011 0.00125 256
1 0.311219 0.60499 0.00140312 0.00775726 -0.0166499 0.149428 0.00125 257
1 0.0120735 0.607735 0.00201596 0.0118911 -0.00118301 -0.077275 0.00125 258
1 0.184943 0.0598453 0.00125276 -0.031783 -0.0056472 0.199592 0.00125 259
1 0.298138 0.147304 0.00123665 0.0154919 0.0121547 -0.269834 0.00125 260
1 0.178649 0.221433 0.00134727 0.0188941 0.00938895 -0.252861 0.00125 261
1 0.109521 0.200541 0.00154855 -0.00751298 -0.00666972 0.101215 0.00125 262
1 0.139192 0.266258 0.00155866 -0.00826476 -0.0119581 0.0994403 0.00125 263
1 0.00863559 0.592313 0.0012882 -0.00497965 -0.00315291 -0.223978 0.00125 264
1 0.580319 0.546226 0.00140173 0.0687847 -0.0215807 -0.0613916 0.00125 265
1 0.475865 0.0936566 0.00162102 0.00421431 0.00856509 0.0922113 0.00125 266
1 0.292068 0.0781874 0.00157964 -0.00924336 -0.00699258 -0.0668588 0.00125 267
1 0.52972 0.0638894 0.00240434 0.000134886 -0.0152884 -0.0479595 0.00125 268
1 0.369241 0.601244 0.00138515 0.000442246 -0.00120042 -0.239025 0.00125 269
1 0.302348 0.0573581 0.00134995 0.00597621 -0.00182999 0.170154 0.00125 270
1 0.285221 0.337298 0.00158475 0.000797279 -0.0148657 0.0526256 0.00125 271
1 0.200081 0.151472 0.00131128 -0.0105989 -0.00376308 -0.0738714 0.00125 272
1 0.602383 0.122341 0.00134835 0.000498571 0.000736695 -0.236352 0.00125 273
1 0.0406405 0.522773 0.00142353 -0.0144081 0.0198624 0.155576 0.00125 274
1 0.462344 0.513119 0.00124147 -0.00803055 -0.0124967 0.190411 0.00125 275
1 0.414242 0.213531 0.00158883 -0.00126814 0.00468124 -0.235455 0.00125 276
1 0.0776154 0.412334 0.00128521 -0.0143739 -0.000575314 0.186604 0.00125 277
1 0.606524 0.330913 0.00196618 -0.00484798 -0.00372225 -0.0650281 0.00125 278
1 0.557177 0.280778 0.00156793 -0.00411524 -0.00195959 0.100217 0.00125 279
1 0.56513 0.419648 0.00154872 -0.0154758 -0.00637031 0.104088 0.00125 280
1 0.446095 0.205398 0.00128904 0.0093106 -0.0147144 0.204088 0.00125 281
1 0.58401 0.118725 0.0022101 0.0209993 0.00639111 -0.0519905 0.00125 282
1 0.562779 0.491466 0.00230598 -0.00347495 0.00429146 -0.0633543 0.00125 283
1 0.563098 0.370776 0.00145736 -0.00946589 -0.00618917 0.223334 0.00125 284
1 0.516958 0.0653647 0.00146302 0.000832291 0.00797773 0.0870356 0.00125 285
1 0.546905 0.576147 0.00147546 -0.00378893 -0.00972314 0.126982 0.00125 286
1 0.137647 0.22655 0.00126317 -0.00859378 -0.00277108 0.243415 0.00125 287
1 0.365248 0.553394 0.00159057 -0.00862865 -0.014979 -0.179875 0.00125 288
1 0.305382 0.608006 0.00143723 0.00797921 -0.00327446 -0.232934 0.00125 289
1 0.496986 0.0160758 0.00208353 0.0114186 -0.020558 -0.0607561 0.00125 290
1 0.270992 0.565658 0.0013579 0.0101614 0.0367649 -0.250715 0.00125 291
1 0.491104 0.0246518 0.00143001 -0.00450576 0.00689411 0.165503 0.00125 292
1 0.6091 0.559959 0.00132947 -0.00108074 -0.013041 -0.23699 0.00125 293
1 0.511368 0.0845239 0.00143999 0.00320324 0.00228708 0.135649 0.00125 294
1 0.0680713 0.139991 0.00202078 0.00616348 -0.00271275 -0.222785 0.00125 295
1 0.476875 0.0361106 0.00126088 -0.0103121 -0.00025763 0.198748 0.00125 296
1 0.502955 0.152333 0.00239379 -0.00632642 0.0152968 0.0309411 0.00125 297
1 0.0661743 0.507938 0.0012539 0.011026 0.00244057 0.0274405 0.00125 298
1 0.341967 0.026892 0.00132732 0.0262721 0.0124459 -0.273148 0.00125 299
1 0.14364 0.48008 0.00127591 0.0163525 0.00280081 -0.234053 0.00125 300
1 0.207504 0.144436 0.00124899 0.00418989 -0.00938116 -0.222858 0.00125 301
1 0.114836 0.118524 0.00239913 0.00329688 -0.00094727 -0.100277 0.00125 302
1 0.477589 0.354093 0.00156493 -0.00065685 0.00259097 -0.165478 0.00125 303
1 0.47371 0.0465554 0.00159189 0.0141029 0.0169976 0.0870981 0.00125 304
1 0.254674 0.245807 0.00130994 -0.00435372 0.0140894 0.0977591 0.00125 305
1 0.0902375 0.348636 0.00165071 -0.014722 0.0274384 -0.0914145 0.00125 306
1 0.324886 0.207457 0.00131953 0.000214901 0.002477 0.230569 0.00125 307
1 0.199655 0.117967 0.00146064 0.00127429 0.00125364 -0.180526 0.00125 308
1 0.392591 0.0786845 0.00139266 -0.0140817 -0.0129509 0.151412 0.00125 309
1 0.292091 0.0212615 0.00129776 -0.00627312 0.0102174 -0.0368558 0.00125 310
1 0.119659 0.245299 0.00135191 0.00102775 0.0094356 -0.238522 0.00125 311
1 0.290964 0.123036 0.00229724 0.0038894 0.00279012 -0.15495 0.00125 312
1 0.249659 0.399787 0.00131847 -0.00686572 -0.00117354 -0.088883 0.00125 313
1 0.137927 0.144049 0.00144348 0.0011576 -0.0198454 -0.239882 0.00125 314
1 0.0436343 0.388265 0.00157635 -0.0321601 0.000292546 -0.23025 0.00125 315
1 0.522856 0.370924 0.00213802 -0.000991134 -0.00281148 -0.198556 0.00125 316
1 0.0442265 0.215603 0.00131359 0.00465932 0.00842844 -0.235218 0.00125 317
1 0.0636983 0.425407 0.00134071 -0.00183579 0.0043875 -0.239872 0.00125 318
1 0.0687314 0.0725405 0.0019517 -0.00134954 -0.00614551 -0.0688291 0.00125 319
1 0.240473 0.056308 0.00166036 -0.00482381 -0.000233229 -0.174403 0.00125 320
1 0.43459 0.302483 0.00148492 -0.000671215 -0.00086002 -0.23868 0.00125 321
1 0.207322 0.0390817 0.00222674 0.014261 0.00609506 -0.0548821 0.00125 322
1 0.502594 0.573678 0.00148642 -0.0229998 0.0425 -0.251518 0.00125 323
1 0.303004 0.492813 0.00127738 0.00935849 -0.00547927 0.188494 0.00125 324
1 0.482426 0.566536 0.00128643 0.00813889 -0.00120791 -0.115595 0.00125 325
1 0.245175 0.204153 0.00180691 0.00633324 -0.00284143 -0.0786917 0.00125 326
1 0.285182 0.556486 0.00122982 -0.00687731 -0.00561465 0.0738568 0.00125 327
1 0.552836 0.545547 0.0013828 -0.00496268 -0.00943368 0.183577 0.00125 328
1 0.554128 0.316469 0.00126279 -0.0105161 0.0011862 0.241352 0.00125 329
1 0.375938 0.00831461 0.00135714 0.00272013 0.0142928 -0.227242 0.00125 330
1 0.465052 0.456605 0.00132788 0.0081848 0.0066828 -0.22517 0.00125 331
1 0.0654792 0.0709414 0.00125855 0.00154135 0.00665929 0.195728 0.00125 332
1 0.109956 0.11591 0.00129738 -0.00267488 -0.0424079 -0.124635 0.00125 333
1 0.516801 0.219263 0.0013744 -0.00131984 0.0215433 0.258514 0.00125 334
1 0.108892 0.263657 0.00231705 0.00663842 -0.00927563 -0.0450814 0.00125 335
1 0.405623 0.281149 0.00137261 0.00518123 0.0153821 -0.273383 0.00125 336
1 0.355455 0.195697 0.00124971 0.0122259 -0.00575176 -0.202227 0.00125 337
1 0.24234 0.606968 0.00187629 -0.00415195 -0.00637885 -0.209425 0.00125 338
1 0.00428127 0.555208 0.00211325 0.00577012 -0.0201179 -0.0565453 0.00125 339
1 0.1018 0.367995 0.00149209 -0.00098996 -0.0105922 -0.230539 0.00125 340
1 0.29099 0.460958 0.00123003 -0.00316018 0.000340578 -0.209761 0.00125 341
1 0.375183 0.246222 0.00148759 -0.00283529 -0.00170047 -0.299197 0.00125 342
1 0.0205094 0.394975 0.00130831 0.00727852 0.0179112 -0.234368 0.00125 343
1 0.221895 0.267078 0.00161889 0.00293652 -0.00218012 -0.232899 0.00125 344
1 0.537086 0.16857 0.00137156 0.0146191 -0.00197102 -0.237922 0.00125 345
1 0.0463215 0.505571 0.00137313 -0.00526891 0.000240278 0.183008 0.00125 346
1 0.241234 0.154758 0.00166035 0.00147828 0.0067895 -0.233483 0.00125 347
1 0.407107 0.589786 0.00131657 -0.00390503 0.00537953 0.202843 0.00125 348
1 0.302094 0.28451 0.00225006 0.00782751 0.0136854 -0.0547699 0.00125 349
1 0.436195 0.226161 0.00182951 0.00414509 0.00123117 -0.15158 0.00125 350
1 0.142612 0.0679973 0.001431 0.0253504 -0.00852635 0.138318 0.00125 351
1 0.167288 0.431009 0.00143714 0.00986817 0.0080362 0.171087 0.00125 352
1 0.473548 0.27208 0.00135192 0.001129 -0.00868184 -0.220544 0.00125 353
1 0.224645 0.0300539 0.00230406 0.00168014 -0.0317615 -0.0416821 0.00125 354
1 0.495038 0.184104 0.00145895 -0.00733735 0.0165613 -0.194277 0.00125 355
1 0.199878 0.138817 0.00157233 1.02761e-05 -0.0156378 -0.184919 0.00125 356
1 0.450163 0.491945 0.00123061 -0.00214028 -0.0244938 0.0665913 0.00125 357
1 0.325375 0.355814 0.00147495 0.00560948 -0.000760074 0.124302 0.00125 358
1 0.157782 0.586606 0.00129027 -0.0106788 -0.00793812 -0.232245 0.00125 359
1 0.199851 0.100966 0.00175429 0.0167538 0.00448939 -0.222148 0.00125 360
1 0.34541 0.253971 0.00167899 -0.00316846 0.00753438 -0.0577199 0.00125 361
1 0.299148 0.080902 0.00157521 -0.0448484 0.00235794 -0.196959 0.00125 362
1 0.155517 0.0562851 0.00144331 0.00683536 0.0018533 0.209655 0.00125 363
1 0.548834 0.222511 0.00129651 -0.0084894 0.0145622 0.184811 0.00125 364
1 0.500646 0.616062 0.0017115 -0.0111115 0.00898944 -0.193259 0.00125 365
1 0.315248 0.33647 0.00130832 -0.0102686 0.014337 0.234255 0.00125 366
1 0.20232 0.496904 0.00142883 -0.00862992 -0.0229367 -0.239556 0.00125 367
1 0.60599 0.515329 0.00135556 -0.00407949 -0.00247751 0.164518 0.00125 368
1 0.256864 0.384728 0.00133416 -0.00882576 -0.0187626 -0.229972 0.00125 369
1 0.260743 0.609719 0.00157841 0.00021389 0.0022711 -0.177047 0.00125 370
1 0.464205 0.500077 0.00223135 -0.0111919 -0.00902158 -0.0452313 0.00125 371
1 0.256233 0.214512 0.0015343 -0.0117351 -0.00797348 -0.237364 0.00125 372
1 0.416665 0.341171 0.00123861 0.00687313 0.00346935 -0.194978 0.00125 373
1 0.16638 0.244039 0.00244284 0.00225163 -0.010395 0.0334412 0.00125 374
1 0.350334 0.113375 0.00199705 0.004944 0.0109336 -0.0077975 0.00125 375
1 0.505382 0.542328 0.00127296 0.0152141 0.0140254 -0.231534 0.00125 376
1 0.112179 0.0415893 0.00130486 -0.0143777 0.00129234 0.0131932 0.00125 377
1 0.347864 0.274366 0.00133874 0.00986317 -0.00453044 0.196789 0.00125 378
1 0.0975932 0.463323 0.00212109 0.00371737 0.000418224 -0.203505 0.00125 379
1 0.169246 0.258638 0.0022038 -0.00336012 -0.013837 -0.144854 0.00125 380
1 0.61692 0.00250189 0.00123265 0.00351767 -0.00190579 -0.130426 0.00125 381
1 0.190855 0.100371 0.00238551 0.00195578 -0.00206219 -0.0402655 0.00125 382
1 0.589558 0.19487 0.00143393 0.0055519 -0.000438326 -0.240019 0.00125 383
1 0.533018 0.0715611 0.00128152 0.00711007 -9.66964e-05 -0.202295 0.00125 384
1 0.018437 0.0473268 0.00122664 0.00128638 0.0172854 -0.00241411 0.00125 385
1 0.331666 0.584702 0.00146194 -0.00635179 0.010812 -0.185281 0.00125 386
1 0.0314159 0.227775 0.00164705 -0.000992749 -0.0115282 -0.0891327 0.00125 387
1 0.301925 0.409134 0.00122673 -0.00083197 -0.000133379 0.0406154 0.00125 388
1 0.291944 0.604965 0.00123176 -0.00785254 -0.00178663 -0.0970008 0.00125 389
1 0.131843 0.296561 0.00132448 -0.00741711 -0.0104548 -0.0182644 0.00125 390
1 0.57906 0.203613 0.00180176 -0.0182617 0.00575742 0.105139 0.00125 391
1 0.445612 0.120676 0.00156715 0.00848068 0.0134148 0.0990348 0.00125 392
1 0.132505 0.551254 0.00152562 -0.0042577 0.0024113 0.108314 0.00125 393
1 0.590574 0.389397 0.00124614 0.0205137 -0.00893604 -0.227243 0.00125 394
1 0.433123 0.516474 0.00123926 0.00678447 0.00890671 0.179447 0.00125 395
1 0.273521 0.298965 0.00215069 0.00706083 -0.00442105 -0.0213018 0.00125 396