ITEM: TIMESTEP
1000000
ITEM: NUMBER OF ATOMS
10000
ITEM: BOX BOUNDS pp pp ff
0.0000000000000000e+00 3.7255196374999999e-01
0.0000000000000000e+00 3.7255196374999999e-01
-1.2500000000000001e-02 1.2500000000000001e-02
ITEM: ATOMS type x y z vx vy vz radius id
1 0.304 0.148591 0.00154793 0.0152932 0.00614614 -0.182388 0.00125 1
1 0.160399 0.313321 0.00240955 0.0224826 -0.0314666 -0.101716 0.00125 2
1 0.16509 0.219249 0.00171379 -0.00492757 -0.00193496 -0.274128 0.00125 3
1 0.146399 0.0287073 0.00128156 0.0135612 -0.0106096 -0.0646083 0.00125 4
1 0.0127678 0.181655 0.00135836 -0.00747427 0.0234099 0.233142 0.00125 5
1 0.0658708 0.165994 0.00128476 0.0050547 0.0078562 -0.198239 0.00125 6
1 0.114224 0.275286 0.00136431 -0.0146367 -0.000983577 0.180574 0.00125 7
1 0.190582 0.244008 0.00164994 0.0230617 0.00315945 -0.245827 0.00125 8
1 0.055137 0.301538 0.00126792 0.00872092 -0.0179422 0.165803 0.00125 9
1 0.150585 0.0236921 0.00146919 0.00535379 0.000168566 -0.235247 0.00125 10
1 0.255894 0.268499 0.00192136 0.00745156 0.0490338 -0.0873655 0.00125 11
1 0.217542 0.305755 0.00244336 0.0211264 -0.00118456 -0.071566 0.00125 12
1 0.0365593 0.0915877 0.00197765 -0.0182016 -0.0167312 -0.138023 0.00125 13
1 0.156565 0.335679 0.00160009 0.0116448 0.016012 0.13998 0.00125 14
1 0.249943 0.0721547 0.0014364 -0.0109988 -0.00943088 -0.217295 0.00125 15
1 0.0297732 0.0192779 0.00170679 0.0068595 -0.0360301 -0.167244 0.00125 16
1 0.152476 0.209432 0.00145799 -0.0237024 0.0051462 -0.18662 0.00125 17
1 0.370979 0.299883 0.00144775 0.000518951 0.00170276 0.165662 0.00125 18
1 0.0263932 0.0960984 0.00159641 -0.00578427 -0.00818078 0.0901526 0.00125 19
1 0.283751 0.107226 0.00148333 0.000702501 -0.00959146 -0.0745382 0.00125 20
1 0.266813 0.252058 0.00148124 0.0248646 -0.009674 -0.24075 0.00125 21
1 0.0770382 0.10418 0.00139841 0.00747305 0.00707755 -0.228967 0.00125 22
1 0.291872 0.371105 0.00132573 0.000590596 0.00168991 -0.282698 0.00125 23
1 0.0433181 0.218344 0.00184037 0.00934354 0.0133478 -0.254785 0.00125 24
1 0.179198 0.368919 0.0015677 0.00604632 0.007413 0.0481097 0.00125 25
1 0.225091 0.0536237 0.00166415 -0.0588615 0.0132059 -0.175943 0.00125 26
1 0.250807 0.0368893 0.00123835 -0.00565744 -0.00849622 0.255988 0.00125 27
1 0.0633736 0.0626553 0.00221535 0.0357798 0.0151654 -0.0461223 0.00125 28
1 0.342928 0.231026 0.00173932 -0.00746043 -0.0483792 -0.109201 0.00125 29
1 0.232149 0.204256 0.00137538 -0.0332212 -0.0317851 -0.219843 0.00125 30
1 0.203561 0.18856 0.0012306 0.0157143 -0.00719031 -0.0393828 0.00125 31
1 0.257727 0.245279 0.00158792 -0.0401392 0.00433357 -0.185254 0.00125 32
1 0.0977436 0.366154 0.00152077 -0.00318764 -0.00609001 -0.230096 0.00125 33
1 0.269333 0.278903 0.00156179 0.0247859 0.00544924 0.101166 0.00125 34
1 0.130259 0.226207 0.00200514 -0.0172822 -0.0164114 -0.204046 0.00125 35
1 0.0284521 0.304355 0.00147855 -0.033889 -0.00189893 -0.245503 0.00125 36
1 0.241676 0.268297 0.0012329 -0.0148956 0.00566661 -0.114307 0.00125 37
1 0.197987 0.294851 0.00132425 -0.0374274 0.0258762 0.231559 0.00125 38
1 0.104331 0.325529 0.00193086 0.000666053 -0.0159429 -0.197527 0.00125 39
1 0.287532 0.0446615 0.00156977 -0.0210977 -0.0146231 -0.237898 0.00125 40
1 0.284451 0.0450369 0.00208095 -0.015469 -0.0100239 -0.186158 0.00125 41
1 0.149983 0.0138802 0.00131953 0.00432902 0.00186382 -0.224921 0.00125 42
1 0.36856 0.0186439 0.00194535 0.0237096 0.00497716 -0.0684035 0.00125 43
1 0.251331 0.017757 0.00167495 -0.00924265 0.00634812 0.0565164 0.00125 44
1 0.0470748 0.123699 0.00154795 0.0161885 -0.0117175 0.0865121 0.00125 45
1 0.301977 0.174524 0.00242141 -0.0062311 0.0125482 -0.0386876 0.00125 46
1 0.268163 0.358477 0.00141822 0.00798603 -0.0228116 0.23276 0.00125 47
1 0.265442 0.113862 0.00130192 -0.00393153 0.00225968 0.194683 0.00125 48
1 0.254101 0.1087 0.00144334 -0.0699822 -0.0145582 0.198925 0.00125 49
1 0.0967872 0.263186 0.00145913 -0.00717858 -0.00526507 0.228955 0.00125 50
1 0.0472842 0.201061 0.00178808 -0.0561725 0.0347264 -0.13399 0.00125 51
1 0.179448 0.184221 0.00140833 -0.00891248 0.0381198 -0.237686 0.00125 52
1 0.280582 0.311609 0.0013892 -0.0126887 0.0156997 -0.233686 0.00125 53
1 0.0197674 0.0871005 0.00134978 0.00732033 0.00951976 0.0646587 0.00125 54
1 0.0202163 0.307303 0.00162265 0.00539315 0.1084 -0.0439214 0.00125 55
1 0.180394 0.0607099 0.00236959 -0.0228952 -0.00342972 -0.040108 0.00125 56
1 0.324634 0.217256 0.00172221 -0.0772719 -0.0669817 -0.224776 0.00125 57
1 0.297108 0.14429 0.00153767 -0.00184524 -0.00797043 -0.186572 0.00125 58
1 0.136551 0.191282 0.00132552 0.00763546 0.0192178 -0.23675 0.00125 59
1 0.147377 0.0893249 0.00141814 -0.0100936 -0.00614708 -0.182686 0.00125 60
1 0.19868 0.0522403 0.00164601 0.0164713 -0.00550879 0.171502 0.00125 61
1 0.370467 0.226845 0.00140917 0.00577004 0.000836923 -0.237212 0.00125 62
1 0.204988 0.218422 0.00142217 0.00101003 -0.00232017 -0.203094 0.00125 63
1 0.0992509 0.265515 0.00145631 0.00764059 -0.000838986 0.231035 0.00125 64
1 0.21346 0.284605 0.00231397 -0.0064989 -0.017607 -0.056767 0.00125 65
1 0.348736 0.10814 0.00154446 0.0714816 0.044526 0.203939 0.00125 66
1 0.294807 0.371196 0.00151467 0.0126303 0.00471992 0.109581 0.00125 67
1 0.105377 0.124186 0.00125482 -0.00266472 0.028576 -0.245661 0.00125 68
1 0.287928 0.352209 0.0014172 0.00839541 -0.0113939 0.142052 0.00125 69
1 0.354338 0.0148956 0.00127646 -0.00501422 -0.0201092 -0.230379 0.00125 70
1 0.302789 0.0577267 0.001587 -0.00529099 0.00144561 0.209493 0.00125 71
1 0.292458 0.019506 0.00144307 0.0167152 -0.0122646 0.131265 0.00125 72
1 0.00857175 0.269358 0.00177251 -0.0173691 0.0284383 0.101468 0.00125 73
1 0.199289 0.0310039 0.00231059 -0.00196421 -0.00335725 -0.0034504 0.00125 74
1 0.241039 0.289395 0.00123721 -0.021973 -0.0019978 -0.183848 0.00125 75
1 0.167371 0.134432 0.00133559 -0.0210958 -0.0124832 0.170937 0.00125 76
1 0.275801 0.23242 0.0012712 0.0120999 -0.00191065 0.179756 0.00125 77
1 0.1323 0.0131356 0.00123128 0.0132311 -9.44906e-05 -0.0685458 0.00125 78
1 0.195128 0.310209 0.00158271 -0.00656792 -0.0150743 0.145229 0.00125 79
1 0.0920203 0.295727 0.00138331 -0.0700861 -0.084 -0.206884 0.00125 80
1 0.128741 0.293805 0.00176457 -0.0295622 0.00456444 0.133562 0.00125 81
1 0.0160432 0.240528 0.00156537 0.00194334 0.0186909 -0.233279 0.00125 82
1 0.339912 0.365246 0.0015574 0.00364464 0.0141381 -0.234213 0.00125 83
1 0.333252 0.0780162 0.00122529 0.00047737 0.00474754 -0.12081 0.00125 84
1 0.326663 0.352847 0.0015344 0.00215235 0.012772 0.129122 0.00125 85
1 0.324039 0.00369048 0.00137321 0.109994 0.0147395 -0.0185274 0.00125 86
1 0.347256 0.0929343 0.00141543 0.0159448 -0.0436458 0.131307 0.00125 87
1 0.371128 0.0978961 0.0019265 -0.0269335 -0.0928391 -0.195318 0.00125 88
1 0.344406 0.240813 0.00128595 0.00886661 0.0109856 -0.222631 0.00125 89
1 0.0392603 0.347296 0.00136423 -0.017102 -0.0241605 -0.237861 0.00125 90
1 0.162709 0.256036 0.00141323 -0.00445065 -0.00431049 -0.18624 0.00125 91
1 0.252158 0.00686879 0.00170692 0.0164713 0.00216967 -0.270112 0.00125 92
1 0.0420373 0.247881 0.00122646 0.00291299 -0.00706949 -0.0228543 0.00125 93
1 0.298239 0.147801 0.00146037 -0.000452686 0.00902755 -0.188014 0.00125 94
1 0.367022 0.334212 0.00162657 -0.00874161 0.0122826 -0.223986 0.00125 95
1 0.33272 0.0448412 0.00128318 0.0117015 -0.00565413 0.18675 0.00125 96
1 0.0701028 0.180855 0.00128422 0.0138468 -0.00654501 -0.231263 0.00125 97
1 0.271965 0.108215 0.00142639 -0.0132106 0.0479883 -0.211681 0.00125 98
1 0.298384 0.121235 0.00160957 -0.00618385 -0.019064 -0.285603 0.00125 99
1 0.0129965 0.103201 0.00157166 0.00824834 0.0110592 -0.18944 0.00125 100
1 0.0439718 0.241228 0.00125926 -0.00962849 0.0357596 -0.272241 0.00125 101
1 0.179278 0.308139 0.00123741 -0.0232073 -0.00115785 0.179259 0.00125 102
1 0.271801 0.321204 0.00160014 0.0130521 0.0189315 0.0808697 0.00125 103
1 0.195608 0.342943 0.00231498 -0.019203 0.0147588 -0.118392 0.00125 104
1 0.113778 0.202236 0.00145396 0.00172123 -0.0270711 -0.1016 0.00125 105
1 0.291658 0.335718 0.00126069 0.000726666 0.00141991 -0.230006 0.00125 106
1 0.303789 0.105785 0.00143123 0.0189489 -0.0105601 -0.212957 0.00125 107
1 0.20002 0.270778 0.00127714 -0.00624043 0.00578628 0.191172 0.00125 108
1 0.243332 0.0601046 0.00211662 0.0192192 -0.0135681 -0.0721147 0.00125 109
1 0.0497401 0.165376 0.00177166 -0.0150951 -0.0183339 0.108176 0.00125 110
1 0.298118 0.0545069 0.00188301 0.0202678 -0.00863891 -0.0768901 0.00125 111
1 0.175099 0.0568652 0.00167289 -0.00666801 0.0307004 -0.21981 0.00125 112
1 0.239163 0.328655 0.00123061 0.00541393 0.0175048 -0.0556447 0.00125 113
1 0.30473 0.353723 0.00135078 0.00276544 -0.0044961 0.13856 0.00125 114
1 0.0734082 0.184371 0.00127265 0.0102415 -0.0338243 -0.22997 0.00125 115
1 0.231871 0.073567 0.00138516 0.0511609 -0.0623116 -0.0852994 0.00125 116
1 0.114233 0.26027 0.00130361 -0.0244382 -0.00018682 -0.228484 0.00125 117
1 0.0843278 0.000364258 0.00132833 -0.0104829 -0.00847818 -0.0179353 0.00125 118
1 0.31982 0.0228967 0.00130482 0.00531608 0.00755612 0.183552 0.00125 119
1 0.295729 0.203667 0.00125561 -0.00274911 0.0135441 0.21859 0.00125 120
1 0.0928967 0.0674675 0.0012607 -0.0252251 -0.0309126 0.219119 0.00125 121
1 0.0719058 0.234315 0.00177225 0.00119295 -0.00661309 0.133262 0.00125 122
1 0.202246 0.00372642 0.00173581 -0.0189341 -0.00420176 -0.0836768 0.00125 123
1 0.227644 0.353472 0.00129192 -0.0105288 -0.0264851 -0.247657 0.00125 124
1 0.249622 0.20227 0.00167549 0.0127886 0.0312398 -0.228637 0.00125 125
1 0.364627 0.242808 0.0019376 0.0563598 0.0415914 -0.106674 0.00125 126
1 0.134266 0.36278 0.0013246 0.0177587 0.065607 -0.145504 0.00125 127
1 0.151968 0.337116 0.00150614 -0.0113202 0.0305845 -0.0900896 0.00125 128
1 0.212656 0.10604 0.00151329 -0.00472358 -0.00788514 0.1263 0.00125 129
1 0.0924225 0.199419 0.00146661 0.00158039 -0.00505286 -0.217301 0.00125 130
1 0.014847 0.296168 0.00136378 0.0253716 0.00224732 0.184768 0.00125 131
1 0.0748065 0.265083 0.00227125 0.00219435 -0.0090534 0.0144983 0.00125 132
1 0.0765022 0.332141 0.00144717 -0.00200117 -0.0146454 0.209318 0.00125 133
1 0.208174 0.217705 0.00133645 -0.0019588 -0.00494599 -0.235826 0.00125 134
1 0.0395214 0.258061 0.00146964 -0.0258717 0.0443421 -0.228296 0.00125 135
1 0.297466 0.357759 0.00125352 -0.0571098 -0.00555702 -0.00321409 0.00125 136
1 0.195428 0.372304 0.0012427 -0.0177346 -0.0107957 -0.216527 0.00125 137
1 0.303195 0.280098 0.00143721 -0.00644451 0.00464475 0.203649 0.00125 138
1 0.244812 0.0416356 0.00127377 0.00522651 0.00307017 0.199885 0.00125 139
1 0.358785 0.0599111 0.00145423 0.011888 -0.0162324 0.151649 0.00125 140
1 0.066166 0.152426 0.00181222 -0.0229717 -0.0126915 -0.215813 0.00125 141
1 0.307562 0.35853 0.00149338 0.0158406 -0.0176048 0.112236 0.00125 142
1 0.0876985 0.0211882 0.00132826 -0.0195467 -0.0049945 -0.225736 0.00125 143
1 0.358818 0.0394977 0.00205643 0.00954889 0.0100907 -0.071335 0.00125 144
1 0.340463 0.315479 0.00159954 -0.00409631 0.00522725 -0.201148 0.00125 145
1 0.0763452 0.109593 0.00143246 -0.00441428 -0.00985947 0.149085 0.00125 146
1 0.156447 0.14458 0.00149602 -0.0082313 0.00162687 0.20851 0.00125 147
1 0.317676 0.239139 0.00178697 -0.0264142 0.0152936 0.0901243 0.00125 148
1 0.102598 0.25027 0.00144319 0.0374884 0.0382502 -0.283419 0.00125 149
1 0.0816543 0.0441248 0.00149137 0.0107201 -0.00505114 -0.19047 0.00125 150
1 0.241151 0.0288124 0.00126206 -0.0148831 0.0173779 -0.0929799 0.00125 151
1 0.33328 0.166866 0.00150586 0.0121178 -0.0396078 0.114236 0.00125 152
1 0.0977179 0.292992 0.0013485 -0.0136837 0.0064833 -0.243236 0.00125 153
1 0.0811762 0.0467121 0.00221591 -0.0165309 -0.0166281 -0.148801 0.00125 154
1 0.200004 0.325137 0.00139512 0.000962274 -0.00291086 0.17965 0.00125 155
1 0.148146 0.263802 0.00123449 0.00585442 0.000501649 -0.216659 0.00125 156
1 0.0648677 0.148575 0.00174192 -0.0115674 -0.00483758 0.11296 0.00125 157
1 0.150207 0.355091 0.00176078 -0.00998159 0.000248106 -0.21204 0.00125 158
1 0.0597612 0.294184 0.00126523 0.049363 0.0410339 -0.0527532 0.00125 159
1 0.371581 0.0852339 0.00241024 0.0242524 0.0271828 -0.0546836 0.00125 160
1 0.160273 0.271728 0.00152769 1.12833e-05 -0.0120009 0.10725 0.00125 161
1 0.136858 0.369901 0.00134817 -0.0131962 -0.00611704 -0.235013 0.00125 162
1 0.168572 0.0759172 0.0021722 -0.0115392 0.0312514 -0.0547896 0.00125 163
1 0.228437 0.23676 0.00210207 -0.00633994 -0.0273806 -0.059289 0.00125 164
1 0.353571 0.283274 0.00170194 0.0020764 0.00348814 -0.0777819 0.00125 165
1 0.05424 0.0152038 0.00131092 -0.00599874 0.0271378 -0.0736859 0.00125 166
1 0.270762 0.0426434 0.00139404 0.00313296 -0.00410294 0.152616 0.00125 167
1 0.111347 0.367578 0.0013294 -0.0343625 0.0140616 -0.240155 0.00125 168
1 0.124586 0.0712625 0.00136906 -0.00505557 -0.0260525 0.185686 0.00125 169
1 0.346182 0.136684 0.00129946 0.017817 -0.00387763 -0.275268 0.00125 170
1 0.223193 0.286971 0.00137464 -0.0164874 0.0219276 -0.240132 0.00125 171
1 0.212738 0.226845 0.00155279 -0.0299125 -0.0455389 -0.075132 0.00125 172
1 0.230343 0.317198 0.00183645 -0.00837525 0.0069696 -0.0451708 0.00125 173
1 0.0581149 0.257697 0.0015015 -0.0231983 -0.022592 0.129969 0.00125 174
1 0.256188 0.0975063 0.00179222 -0.052413 -0.00528866 0.156468 0.00125 175
1 0.272085 0.00889739 0.00150886 -0.0141017 0.0135942 -0.237385 0.00125 176
1 0.342183 0.136596 0.00138365 0.00260286 -0.00642751 0.183492 0.00125 177
1 0.247936 0.162891 0.00149025 0.012055 0.0119828 0.140305 0.00125 178
1 0.138287 0.289717 0.00160959 -0.0030453 -0.0189254 0.0629529 0.00125 179
1 0.206674 0.0823456 0.00247999 0.0128022 -0.00464405 0.0299933 0.00125 180
1 0.0474141 0.33306 0.00144194 -0.00578743 -0.0103669 0.225646 0.00125 181
1 0.188867 0.319551 0.00131427 0.0244106 0.0156037 -0.222645 0.00125 182
1 0.150214 0.0983133 0.00243452 0.00481723 -0.00215512 -0.0795121 0.00125 183
1 0.0736052 0.334335 0.00147759 0.0136643 0.011904 0.154881 0.00125 184
1 0.210838 0.166471 0.00206008 -0.00624754 -0.00427384 -0.179937 0.00125 185
1 0.271825 0.251557 0.00174466 0.0065074 0.000150924 0.117081 0.00125 186
1 0.0741767 0.125005 0.00135418 -0.0150804 -0.033912 -0.221759 0.00125 187
1 0.173325 0.0210744 0.0013663 -0.00036515 -0.0338162 0.189008 0.00125 188
1 0.0952964 0.30425 0.00122534 -0.0275981 0.00392762 0.000910258 0.00125 189
1 0.0440575 0.0220002 0.00215653 -0.0240964 -0.0165416 -0.0231392 0.00125 190
1 0.258818 0.217376 0.00199554 0.0160095 0.0756425 -0.167589 0.00125 191
1 0.334383 0.0204466 0.00246947 -0.0101455 -0.0135417 -0.0575891 0.00125 192
1 0.0501277 0.328512 0.00133651 -0.00726263 0.0147858 0.157039 0.00125 193
1 0.351545 0.366794 0.00137845 0.0191503 -0.0145185 0.130774 0.00125 194
1 0.317633 0.29821 0.00241869 -0.0201624 0.00530667 -0.0412958 0.00125 195
1 0.326869 0.194917 0.00123234 0.00632 -0.00413989 0.103513 0.00125 196
1 0.31858 0.369897 0.001454 0.00713031 -0.00193073 0.126755 0.00125 197
1 0.0161596 0.119593 0.00130184 0.0102682 0.0174689 0.186201 0.00125 198
1 0.289253 0.0364504 0.00135416 0.00324109 0.0300409 -0.0145427 0.00125 199
1 0.158854 0.180645 0.00135937 0.00490425 -0.00181497 0.155527 0.00125 200
1 0.326579 0.312012 0.00123175 -0.0160398 0.0210528 0.218219 0.00125 201
1 0.281409 0.332536 0.00140821 0.00599921 0.022169 0.156607 0.00125 202
1 0.355043 0.325457 0.00178037 -0.0190753 -0.0206271 -0.217131 0.00125 203
1 0.351491 0.140893 0.00135754 0.0328421 -0.0300822 -0.0585247 0.00125 204
1 0.331232 0.0162787 0.00162109 -0.0150665 -0.00366554 -0.24952 0.00125 205
1 0.0341464 0.172821 0.00220085 -0.0228896 -0.0532073 -0.0461038 0.00125 206
1 0.334451 0.367228 0.00137276 0.0290642 -0.0313667 0.0356655 0.00125 207
1 0.014092 0.158439 0.00140452 0.00121786 0.00247719 -0.191926 0.00125 208
1 0.135045 0.0135065 0.00132103 -0.00257656 -0.00510852 -0.238379 0.00125 209
1 0.208606 0.311608 0.00177992 0.000985646 0.0516188 -0.0789861 0.00125 210
1 0.262561 0.282103 0.00156084 -0.00974082 -0.0165046 -0.236127 0.00125 211
1 0.0558116 0.211149 0.0014355 -0.0218915 -0.00980882 0.21004 0.00125 212
1 0.100608 0.0336929 0.0014217 -0.00199039 -0.00208873 -0.266921 0.00125 213
1 0.162885 0.0573625 0.00125913 0.00453425 -0.00452219 -0.209472 0.00125 214
1 0.0360248 0.0660496 0.00220762 -0.0057623 -0.0049367 -0.151492 0.00125 215
1 0.146634 0.286307 0.00158107 0.00768995 -0.017419 0.0984334 0.00125 216
1 0.219212 0.259498 0.00167489 -0.00924991 0.00553691 0.100813 0.00125 217
1 0.161213 0.14925 0.00155965 0.00804693 0.00893564 -0.230764 0.00125 218
1 0.0717106 0.261871 0.00169715 -0.0397393 0.0282612 -0.256268 0.00125 219
1 0.288859 0.234964 0.00156894 0.00267441 0.0008644 0.100207 0.00125 220
1 0.184961 0.0748119 0.00144811 -0.00954136 -0.0314098 0.034641 0.00125 221
1 0.166128 0.0896418 0.00141737 0.00403498 -0.0358578 0.251169 0.00125 222
1 0.263586 0.279552 0.00135071 0.0162991 -0.000779092 -0.215629 0.00125 223
1 0.0230105 0.209355 0.00153852 -0.00106276 0.00372356 -0.235329 0.00125 224
1 0.301025 0.146716 0.00131175 -0.00204823 0.0246387 0.176304 0.00125 225
1 0.0316402 0.36854 0.00147247 -0.000211304 0.00519673 0.127199 0.00125 226
1 0.11237 0.167072 0.00127535 0.0101448 0.00557784 0.188288 0.00125 227
1 0.102703 0.119925 0.00149002 0.00849474 0.0161186 -0.237473 0.00125 228
1 0.0352777 0.348971 0.00132581 0.00712178 -0.013651 0.105006 0.00125 229
1 0.296842 0.305594 0.00159468 0.00689864 -0.00114875 0.0946595 0.00125 230
1 0.248407 0.118169 0.00155689 0.0114274 0.0282219 0.0740153 0.00125 231
1 0.128221 0.0148282 0.00140254 0.0100269 0.00916058 -0.236676 0.00125 232
1 0.0343859 0.21568 0.00154224 0.0055682 0.0226273 0.101614 0.00125 233
1 0.367781 0.281296 0.00140224 0.00260893 0.00772991 0.148422 0.00125 234
1 0.154761 0.313422 0.0018696 -0.0245502 -0.00294386 -0.209103 0.00125 235
1 0.0877955 0.146796 0.00223166 0.0177857 -0.00626016 -0.14355 0.00125 236
1 0.361663 0.154611 0.00153028 8.98552e-05 -0.012839 -0.20078 0.00125 237
1 0.184163 0.255442 0.00192321 0.0102502 0.0220559 -0.239768 0.00125 238
1 0.369352 0.361363 0.00130156 -0.000970951 0.00335408 0.189544 0.00125 239
1 0.0619687 0.130442 0.00180641 -0.0150114 0.0137541 -0.257897 0.00125 240
1 0.114664 0.164066 0.00167082 -0.00455384 -0.00943287 0.0575842 0.00125 241
1 0.303059 0.256799 0.00160534 -0.0027422 0.0113471 -0.184266 0.00125 242
1 0.0337194 0.0696991 0.00140114 -0.0274034 -0.0151729 0.177902 0.00125 243
1 0.299955 0.312359 0.00145794 0.0354767 0.00235485 0.21802 0.00125 244
1 0.129227 0.267055 0.00170928 0.0112385 0.0151444 -0.158819 0.00125 245
1 0.0938976 0.0838079 0.00152909 0.000685132 -0.0201057 0.0691506 0.00125 246
1 0.19131 0.367954 0.00184473 -0.00809195 -0.0305123 -0.191002 0.00125 247
1 0.217418 0.266887 0.00125757 -0.061692 -0.0177722 -0.114232 0.00125 248
1 0.055327 0.367141 0.00172147 -0.0365713 0.0112058 0.106444 0.00125 249
1 0.0920568 0.154897 0.0023158 -0.0381703 -0.00753239 -0.0659922 0.00125 250
1 0.352567 0.221494 0.00213089 -0.0258274 0.0135201 -0.0562486 0.00125 251
1 0.0571249 0.114472 0.00183943 -0.0148876 0.0201036 -0.150159 0.00125 252
1 0.348491 0.0473602 0.00172462 -0.00616716 -0.00358402 0.109677 0.00125 253
1 0.13699 0.217581 0.00137203 -0.013066 0.0426376 0.170254 0.00125 254
1 0.27467 0.270966 0.00239306 -0.0356366 0.0344959 -0.041789 0.00125 255
1 0.356767 0.16169 0.00136389 0.050663 -0.0138528 -0.203952 0.00125 256
1 0.305244 0.101304 0.00157094 -0.00334693 -0.00606086 -0.184339 0.00125 257
1 0.254796 0.363425 0.00154009 0.000102424 -0.0222724 0.111307 0.00125 258
1 0.168935 0.0578081 0.00144734 0.00327485 -0.016432 -0.208234 0.00125 259
1 0.0451285 0.238172 0.00122811 0.00703652 -0.0140569 -0.00679479 0.00125 260
1 0.0918351 0.118724 0.00147684 0.0066472 0.0108988 -0.0719065 0.00125 261
1 0.206942 0.288849 0.00144118 -0.021753 0.00603561 0.23327 0.00125 262
1 0.10775 0.284174 0.00157892 -0.0103925 -0.0133143 -0.102497 0.00125 263
1 0.0819375 0.350527 0.00168056 0.011963 0.0542468 0.114473 0.00125 264
1 0.227363 0.0795462 0.00135074 -0.0168609 -0.0156254 0.261539 0.00125 265
1 0.143553 0.163031 0.00141029 -0.0222889 -0.0112478 -0.245459 0.00125 266
1 0.24333 0.134993 0.00235295 0.011995 0.0178901 0.0194241 0.00125 267
1 0.144743 0.278538 0.00150294 0.015293 -0.00751045 0.116066 0.00125 268
1 0.368989 0.157805 0.00138862 0.00216223 0.0144392 0.215873 0.00125 269
1 0.338676 0.359054 0.00212021 0.0025422 -0.00255544 -0.064335 0.00125 270
1 0.0034985 0.054024 0.00150938 0.0192227 0.016595 0.0900129 0.00125 271
1 0.136049 0.00318827 0.00145116 -0.0294345 -0.00323301 0.123267 0.00125 272
1 0.0856625 0.168205 0.00127608 -0.00807749 -0.0142009 -0.232985 0.00125 273
1 0.0680438 0.320697 0.00134317 -0.00954587 0.00731931 -0.23845 0.00125 274
1 0.0749164 0.0537562 0.00153528 -0.022105 0.0127407 0.131632 0.00125 275
1 0.354148 0.07359 0.00164907 -0.000589062 0.0302488 -0.266302 0.00125 276
1 0.21898 0.271027 0.00209736 0.0493431 0.0139622 -0.0416226 0.00125 277
1 0.173739 0.0644328 0.00124735 -0.0189281 -0.0149299 0.19393 0.00125 278
1 0.0616986 0.0699105 0.00124121 -0.00535576 -0.0133154 -0.171352 0.00125 279
1 0.337311 0.368601 0.00211875 -0.00769404 -0.0178374 -0.204183 0.00125 280
1 0.287187 0.022677 0.00139879 -0.00674349 -0.0141225 0.147619 0.00125 281
1 0.0988437 0.355727 0.00131662 0.0219018 -0.0159695 0.204465 0.00125 282
1 0.371044 0.183991 0.00142742 0.00326188 0.0402227 0.0155934 0.00125 283
1 0.327552 0.0426348 0.00129065 0.0108401 -0.00846716 0.0139076 0.00125 284
1 0.292919 0.175246 0.00138326 0.00285804 0.0219394 -0.235551 0.00125 285
1 0.191149 0.027825 0.00151576 -0.0170099 0.0180541 -0.0508064 0.00125 286
1 0.263352 0.0418915 0.00143604 0.0175613 -0.00946451 0.128453 0.00125 287
1 0.147198 0.114591 0.00122807 0.000678174 -0.0191126 -0.156372 0.00125 288
1 0.0560847 0.108961 0.001333 0.0506797 -0.0168391 -0.228055 0.00125 289
1 0.0856413 0.36922 0.00129653 0.0415451 0.0257406 0.228202 0.00125 290
1 0.164047 0.259321 0.00155209 0.0288784 7.14199e-05 -0.284382 0.00125 291
1 0.308171 0.0397769 0.00141662 -0.0202737 0.022802 -0.240489 0.00125 292
1 0.0992806 0.190777 0.00125718 -0.0143883 -0.006411 0.204361 0.00125 293
1 0.199651 0.172097 0.00145679 0.00240537 -0.0309997 0.128869 0.00125 294
1 0.165887 0.0757886 0.0015055 0.0254796 0.023267 0.078312 0.00125 295
1 0.308127 0.139859 0.00152401 0.0180109 -0.0387143 -0.0917318 0.00125 296
1 0.36305 0.343321 0.00202703 -0.0115851 0.0416037 -0.0466887 0.00125 297
1 0.00780803 0.261404 0.0017218 -0.0115906 0.000182993 0.110703 0.00125 298
1 0.0179487 0.288765 0.00128175 0.00113277 -0.0126172 -0.231696 0.00125 299
1 0.226122 0.358303 0.0012501 0.00793417 0.0154565 0.200518 0.00125 300
1 0.309555 0.254431 0.00129905 -0.0223575 -0.10275 -0.263742 0.00125 301
1 0.106506 0.0417616 0.00127581 -0.0130953 -0.0145224 -0.276724 0.00125 302
1 0.149419 0.123793 0.00163362 -0.0316907 0.0224598 0.0655554 0.00125 303
1 0.141561 0.195851 0.00196111 -0.00613758 0.00176509 -0.0504952 0.00125 304
1 0.231092 0.290981 0.00123248 -0.0215019 0.0111484 -0.0468621 0.00125 305
1 0.0891959 0.170846 0.00125517 0.0566315 -0.0365945 -0.122241 0.00125 306
1 0.228091 0.130312 0.00155326 -0.00142015 0.00520989 -0.256599 0.00125 307
1 0.00735662 0.283805 0.00197275 0.00529548 -0.0122902 -0.231278 0.00125 308
1 0.0519163 0.245118 0.00129512 0.0163757 0.00220635 -0.231025 0.00125 309
1 0.261557 0.219826 0.00128028 0.0137019 0.00294867 -0.274644 0.00125 310
1 0.187504 0.00230658 0.00124731 0.00996915 -0.0755196 0.0392151 0.00125 311
1 0.193944 0.281656 0.00147403 -0.0034666 0.0075919 -0.196067 0.00125 312
1 0.126417 0.303843 0.00131956 0.00326475 -0.0130573 0.264582 0.00125 313
1 0.331541 0.243904 0.00162236 -0.00424209 -0.00516933 0.057446 0.00125 314
1 0.0397949 0.254789 0.0021468 0.0108449 -0.077957 -0.0278859 0.00125 315
1 0.27529 0.0668045 0.00166748 0.00164617 0.0161445 -0.203255 0.00125 316
1 0.359758 0.344993 0.00250369 -0.00918735 -0.00454503 -0.0585494 0.00125 317
1 0.141182 0.110055 0.00166419 -0.0120629 -0.0139019 0.0983149 0.00125 318
1 0.0658268 0.135658 0.0012549 -0.0102297 0.0177446 0.241992 0.00125 319
1 0.184086 0.235549 0.0013374 -0.003417 -0.0202982 0.159157 0.00125 320
1 0.329506 0.262041 0.00149592 0.0117253 -0.00537506 0.153443 0.00125 321
1 0.352249 0.208802 0.00151075 0.000455075 -0.0151245 0.111005 0.00125 322
1 0.358994 0.191024 0.00186626 0.0153535 -0.000676848 -0.249345 0.00125 323
1 0.358916 0.136852 0.001675 0.0169372 0.0512988 0.0835917 0.00125 324
1 0.0102367 0.0674374 0.0014391 0.00690628 0.000307084 -0.0807752 0.00125 325
1 0.302131 0.119554 0.00139041 -0.0653139 -0.00683971 0.230326 0.00125 326
1 0.0388353 0.0361555 0.00145776 -0.0153245 0.00750283 -0.22142 0.00125 327
1 0.369747 0.0769907 0.0015909 0.0597062 -0.0123764 -0.194054 0.00125 328
1 0.343294 0.238567 0.00146443 -0.000376887 0.0133668 0.12274 0.00125 329
1 0.0490042 0.00538046 0.00148343 -0.050146 -0.00897901 -0.208199 0.00125 330
1 0.308361 0.317755 0.00170987 -0.00610691 -0.01514 -0.187327 0.00125 331
1 0.109801 0.329845 0.0012806 -0.0180752 0.00241565 0.206767 0.00125 332
1 0.106061 0.200578 0.00136281 0.0265569 -0.00855611 0.183653 0.00125 333
1 0.0488203 0.00220576 0.00140518 0.0237533 -0.00502168 0.119382 0.00125 334
1 0.310896 0.174125 0.00134941 0.0245509 -0.0067681 0.158017 0.00125 335
1 0.235503 0.245392 0.00157021 0.0208305 -0.00355012 -0.23063 0.00125 336
1 0.317794 0.0133393 0.0017409 -0.0108386 0.0351687 0.161072 0.00125 337
1 0.131157 0.230157 0.00147266 -0.00112266 0.0557083 0.216874 0.00125 338
1 0.217978 0.147268 0.00181094 0.00873784 0.0474524 -0.189956 0.00125 339
1 0.080695 0.00213038 0.00130424 -0.0198234 0.00514716 0.183269 0.00125 340
1 0.348968 0.366177 0.00152386 0.00813842 0.00317345 0.10894 0.00125 341
1 0.317715 0.00619522 0.00146878 0.00574342 0.0171959 -0.200996 0.00125 342
1 0.0487136 0.116389 0.00151498 -0.00737412 0.000486435 0.0677702 0.00125 343
1 0.211623 0.119142 0.00159033 0.00728079 -0.00650088 -0.236996 0.00125 344
1 0.0708909 0.0395219 0.0014635 -0.0341542 -0.00951467 -0.21876 0.00125 345
1 0.102266 0.161157 0.00230103 0.0256351 -0.00541484 -0.035648 0.00125 346
1 0.114688 0.209241 0.00125523 0.0105112 -0.00272613 0.265434 0.00125 347
1 0.0494676 0.161753 0.00238573 0.0371521 0.013096 -0.000382231 0.00125 348
1 0.325833 0.26659 0.00172448 -0.000772477 0.00312961 -0.0863804 0.00125 349
1 0.263016 0.10898 0.00126433 0.0216397 -0.0125556 0.195334 0.00125 350
1 0.00189631 0.186178 0.00132599 -0.00422319 -0.00849207 0.174718 0.00125 351
1 0.174555 0.101817 0.00134569 -0.000344421 -0.000395827 0.202177 0.00125 352
1 0.105268 0.24323 0.00129036 -0.00393091 -0.0207796 -0.240214 0.00125 353
1 0.117032 0.300779 0.00156311 0.0137522 -0.00776537 -0.237761 0.00125 354
1 0.0401134 0.318271 0.00133637 0.0119814 0.0183681 -0.238798 0.00125 355
1 0.28466 0.314811 0.00170533 -0.00520147 0.0277606 -0.0908013 0.00125 356
1 0.199435 0.154686 0.00175825 -0.00663124 -0.046301 -0.177807 0.00125 357
1 0.185813 0.198996 0.00157632 -0.00644724 -0.0117389 0.158511 0.00125 358
1 0.178192 0.104618 0.00176067 -0.0233839 -0.0194824 -0.215901 0.00125 359
1 0.186603 0.269908 0.0018543 0.068643 0.0133758 -0.0731672 0.00125 360
1 0.00719652 0.0859201 0.00134541 0.00624519 -0.0242004 0.227314 0.00125 361
1 0.0709266 0.316002 0.00175403 -0.029784 -0.0310032 -0.217076 0.00125 362
1 0.368487 0.305968 0.0012327 -0.00165732 -0.0210439 -0.187362 0.00125 363
1 0.321451 0.149746 0.00124114 0.0090487 -0.00174866 -0.207964 0.00125 364
1 0.0892635 0.240588 0.00142329 0.0111451 -0.00996242 -0.200801 0.00125 365
1 0.117022 0.203162 0.00155951 -0.0275552 -0.0571239 -0.21286 0.00125 366
1 0.0593011 0.229838 0.00175746 -0.00261724 0.0022253 0.116815 0.00125 367
1 0.230437 0.122514 0.00155417 -0.00424468 -0.0270503 0.136267 0.00125 368
1 0.107172 0.163794 0.00181267 -0.00270266 -0.0133878 -0.257095 0.00125 369
1 0.298632 0.284674 0.00123119 0.00991911 0.0141451 0.0514995 0.00125 370
1 0.196892 0.117446 0.00140366 0.0398679 0.0292689 0.0830226 0.00125 371
1 0.107262 0.102633 0.00138079 -0.0723282 0.0219651 -0.188866 0.00125 372
1 0.205249 0.0127101 0.00132671 -0.0169975 -0.0134592 0.186931 0.00125 373
1 0.120841 0.348633 0.0013392 -0.0199958 0.0107618 0.168089 0.00125 374
1 0.212086 0.174277 0.00161484 -0.0262117 0.0312702 -0.115658 0.00125 375
1 0.121108 0.176673 0.00148248 -0.0102612 -0.0248051 0.160961 0.00125 376
1 0.185218 0.114724 0.0016992 -0.0203655 0.0389471 -0.161111 0.00125 377
1 0.130688 0.12551 0.00215633 -0.0355942 0.0177584 0.00839365 0.00125 378
1 0.243221 0.176308 0.00208351 -0.0270789 -0.0213049 -0.179893 0.00125 379
1 0.356342 0.0343952 0.00149998 -0.000843143 -0.0155433 -0.206275 0.00125 380
1 0.218261 0.152756 0.00145 -0.0163377 0.0100831 -0.229707 0.00125 381
1 0.0431114 0.310895 0.00138477 0.0164984 -0.013056 0.223048 0.00125 382
1 0.364102 0.333596 0.00139937 0.00248899 -0.0379873 -0.201658 0.00125 383
1 0.217227 0.0771664 0.00213532 0.00522083 0.091006 -0.123927 0.00125 384
1 0.24308 0.354822 0.00124643 0.0333502 -0.00965602 -0.205117 0.00125 385
1 0.303361 0.323464 0.00170939 -0.00714065 -0.00665817 0.123497 0.00125 386
1 0.326423 0.0344493 0.00141562 -0.00405326 0.0101889 0.215188 0.00125 387
1 0.292364 0.0415845 0.00235401 0.0103692 -0.0204479 -0.111345 0.00125 388
1 0.240452 0.166996 0.00158884 0.0154856 -0.0137696 0.097662 0.00125 389
1 0.220485 0.268551 0.00162208 0.010784 0.024064 -0.0756601 0.00125 390
1 0.28864 0.27195 0.00197301 -0.00698517 -0.0107878 -0.0814112 0.00125 391
1 0.330824 0.0787713 0.00153697 0.00828191 0.0227499 0.078517 0.00125 392
1 0.178201 0.242968 0.00156996 0.0168757 -0.0025973 0.0973497 0.00125 393
1 0.078767 0.204347 0.00184415 -0.0222255 0.0166226 -0.0717744 0.00125 394
1 0.0301191 0.131568 0.00136518 -0.0529464 -0.00607994 0.138596 0.00125 395
1 0.115405 0.241261 0.0017966 -0.0160426 -0.00206616 -0.080563 0.00125 396
1 0.284041 0.247703 0.00132812 -0.0210628 -0.0201899 0.211603 0.00125 397
1 0.154884 0.0814542 0.0016216 0.0286047 0.0263137 0.191787 0.00125 398
1 0.278407 0.019507 0.00162243 -0.0441541 -0.0345629 0.0719643 0.00125 399