ITEM: TIMESTEP
1000000
ITEM: NUMBER OF ATOMS
10000
ITEM: BOX BOUNDS pp pp ff
0.0000000000000000e+00 9.5906762125000000e-01
0.0000000000000000e+00 9.5906762125000000e-01
-1.2500000000000001e-02 1.2500000000000001e-02
ITEM: ATOMS type x y z vx vy vz radius id
1 0.135461 0.950764 0.00180897 -0.00709425 0.000537772 -0.212235 0.00125 1
1 0.858186 0.811292 0.00145296 0.00211691 -0.00166407 0.222119 0.00125 2
1 0.941146 0.750944 0.00158477 0.000209045 0.00950382 0.0528239 0.00125 3
1 0.430985 0.489286 0.00142495 0.00634096 0.00369621 -0.239553 0.00125 4
1 0.45079 0.0931372 0.00166593 -0.00168225 0.000116776 -0.0862293 0.00125 5
1 0.848215 0.295831 0.00131088 -0.00112499 -0.00541343 0.197736 0.00125 6
1 0.0486315 0.612257 0.00171448 0.0022843 0.000162858 0.0673131 0.00125 7
1 0.28592 0.784309 0.00131353 -0.00125977 -0.00125485 -0.234299 0.00125 8
1 0.885278 0.616208 0.00151073 -0.00197922 -0.000940282 0.0646262 0.00125 9
1 0.947332 0.232434 0.00149452 -0.00648858 -0.00310792 -0.239477 0.00125 10
1 0.656959 0.458993 0.00190617 -0.00307596 7.62901e-05 -0.0713926 0.00125 11
1 0.531918 0.5914 0.00163952 -0.00307214 -0.000738195 -0.0932644 0.00125 12
1 0.557422 0.492106 0.00153685 -0.00029823 -0.000466523 0.0887409 0.00125 13
1 0.196667 0.0875075 0.00129967 -0.0240755 -0.00903646 0.104452 0.00125 14
1 0.813545 0.411401 0.00144463 0.00802601 0.00237116 -0.231749 0.00125 15
1 0.954741 0.01094 0.00141771 -0.0077069 0.00145404 -0.187313 0.00125 16
1 0.614081 0.780779 0.00141503 0.00674055 0.000403659 -0.245583 0.00125 17
1 0.897185 0.0636988 0.00156789 -0.0150026 -0.0054736 0.0575595 0.00125 18
1 0.100665 0.215458 0.00123023 0.000188555 -0.00176324 0.0490598 0.00125 19
1 0.894147 0.392892 0.00156678 0.00818874 -0.00723689 -0.229249 0.00125 20
1 0.00498101 0.03173 0.00144027 0.000766731 0.00279612 -0.197743 0.00125 21
1 0.558611 0.20969 0.00230312 0.017157 0.013867 -0.046418 0.00125 22
1 0.459061 0.468195 0.00148045 0.00529138 -0.00117197 -0.179051 0.00125 23
1 0.496882 0.0676837 0.00130549 0.000370464 -0.000211449 0.235796 0.00125 24
1 0.670975 0.096229 0.00143868 0.00663955 -0.000101175 -0.256653 0.00125 25
1 0.613172 0.432289 0.00176402 -0.00727411 -0.00771738 0.141021 0.00125 26
1 0.385272 0.508673 0.00167101 0.00113661 0.000700649 -0.169926 0.00125 27
1 0.546399 0.0904437 0.00126906 0.00559898 0.000409026 0.273957 0.00125 28
1 0.444366 0.629617 0.00147838 -0.00115454 -0.00116531 0.126332 0.00125 29
1 0.0358029 0.055692 0.00143455 -0.00292963 -0.000392561 0.141209 0.00125 30
1 0.0482035 0.582849 0.00140324 -1.22125e-05 0.000165146 -0.229705 0.00125 31
1 0.619829 0.735756 0.00125964 -0.00832432 0.0124278 -0.21935 0.00125 32
1 0.33429 0.585857 0.00128572 0.00671178 -0.000968956 -0.0441612 0.00125 33
1 0.859354 0.761688 0.00152486 -0.00100307 -0.00381641 -0.231985 0.00125 34
1 0.855678 0.669677 0.00209935 0.00104455 0.00313828 -0.208164 0.00125 35
1 0.340781 0.830837 0.00125001 0.00209241 -0.0107637 0.18293 0.00125 36
1 0.682003 0.525763 0.0012369 -0.00943518 -0.00388208 -0.182775 0.00125 37
1 0.813133 0.205157 0.0013403 0.0181933 0.0128624 0.0784064 0.00125 38
1 0.153379 0.422989 0.00176788 -0.00637091 0.00637711 -0.216531 0.00125 39
1 0.133996 0.875086 0.00169007 -0.00769821 -0.0149267 0.0971696 0.00125 40
1 0.898204 0.126453 0.00163919 0.00280324 0.00215113 -0.181305 0.00125 41
1 0.152688 0.594992 0.00191784 0.00360574 -0.00211333 -0.20215 0.00125 42
1 0.62486 0.270431 0.00190277 -0.00249627 -0.00917176 -0.0719592 0.00125 43
1 0.684473 0.247236 0.00124677 0.0145703 -0.00313323 -0.227371 0.00125 44
1 0.267859 0.476711 0.00129647 0.000367455 -0.00560581 -0.238505 0.00125 45
1 0.554937 0.161889 0.00148222 0.00918875 -0.0077064 -0.19683 0.00125 46
1 0.207085 0.420854 0.00128023 0.0072363 -0.0118975 -0.231635 0.00125 47
1 0.873608 0.708556 0.00161069 0.00413975 0.00109821 -0.169354 0.00125 48
1 0.308702 0.661821 0.00139628 -0.00608971 0.0118185 -0.25133 0.00125 49
1 0.608644 0.466673 0.00129639 -0.000322801 0.00147308 -0.297112 0.00125 50
1 0.651078 0.0788436 0.00129515 -0.00237606 0.00041191 -0.0731899 0.00125 51
1 0.198054 0.243382 0.00127411 -0.00736706 -0.000295516 0.207439 0.00125 52
1 0.410609 0.576446 0.00148055 -0.00437709 0.00113806 0.105518 0.00125 53
1 0.798881 0.298993 0.00176183 0.00401627 0.00805688 0.136958 0.00125 54
1 0.940191 0.645229 0.00128449 0.000813833 -0.00234726 -0.224482 0.00125 55
1 0.806941 0.494136 0.00175617 -0.00260732 -0.000373894 -0.0403787 0.00125 56
1 0.0562564 0.953043 0.0016247 -0.00782629 -0.0080131 0.0538567 0.00125 57
1 0.292073 0.18424 0.00122914 -0.0111511 0.00482258 0.0370661 0.00125 58
1 0.234621 0.315033 0.00184438 0.00781161 -0.00300646 -0.159816 0.00125 59
1 0.149131 0.640764 0.00129478 0.00957116 -0.00660833 0.0296023 0.00125 60
1 0.753677 0.00244358 0.0020213 -0.000289451 -0.000299572 1.73839e-05 0.00125 61
1 0.063301 0.918964 0.00127423 0.00083726 0.00333825 -0.31376 0.00125 62
1 0.0164092 0.693629 0.00166883 0.00529967 -0.00270512 -0.0858158 0.00125 63
1 0.338872 0.957629 0.00224705 -0.00109244 -0.00312629 -0.0471246 0.00125 64
1 0.686782 0.902313 0.00165966 -0.00211611 -0.00408605 -0.0874634 0.00125 65
1 0.6605 0.866356 0.00151509 0.00335962 0.00633855 -0.19327 0.00125 66
1 0.32971 0.722685 0.00126534 0.00211083 -0.00448408 -0.251426 0.00125 67
1 0.502889 0.648999 0.00136212 0.00225538 -0.00459477 -0.307992 0.00125 68
1 0.505152 0.00243517 0.00185712 0.0147087 -0.00448508 -0.0744644 0.00125 69
1 0.92298 0.270916 0.00145597 -0.000497408 0.000411971 0.130192 0.00125 70
1 0.495706 0.790769 0.00192485 -0.00637181 -0.00729627 -0.0435142 0.00125 71
1 0.389991 0.764657 0.00142751 0.00705847 -0.00460292 -0.240995 0.00125 72
1 0.29891 0.379696 0.00172298 -0.0155905 0.0133007 -0.200239 0.00125 73
1 0.499903 0.247274 0.00159892 -0.00393187 -0.00282685 -0.0933226 0.00125 74
1 0.778597 0.586772 0.00125035 -0.00399344 0.00427711 0.21468 0.00125 75
1 0.670813 0.811821 0.00139334 -0.00342084 0.0113982 0.179728 0.00125 76
1 0.291968 0.491736 0.00203847 -1.85921e-05 -0.00169737 -0.0799645 0.00125 77
1 0.794641 0.143503 0.00123374 3.4752e-05 0.00175758 -0.208161 0.00125 78
1 0.895779 0.402801 0.0023624 -0.0047839 0.023981 -0.0426494 0.00125 79
1 0.133865 0.503101 0.00150805 0.00700543 0.00632319 0.098405 0.00125 80
1 0.422394 0.205171 0.00153858 -0.00250189 0.0011145 0.108234 0.00125 81
1 0.534886 0.950558 0.00236763 0.000175638 -0.0010513 -0.0421608 0.00125 82
1 0.583207 0.0163477 0.00236626 -0.00469607 0.00902917 0.0268688 0.00125 83
1 0.517195 0.200189 0.00151661 0.0085105 -0.00339407 -0.238071 0.00125 84
1 0.833089 0.706303 0.00152901 0.000332015 -0.00118016 -0.189778 0.00125 85
1 0.012929 0.604885 0.00207208 -0.00317316 0.00071219 -0.0605719 0.00125 86
1 0.185299 0.659512 0.00138772 -0.00532785 -0.00987405 -0.201042 0.00125 87
1 0.839853 0.210486 0.00227619 0.00144175 -0.00177662 -0.0424878 0.00125 88
1 0.0112722 0.300915 0.00243254 -0.00172205 -0.00346911 -0.0801942 0.00125 89
1 0.814 0.877376 0.00134584 0.00301831 -0.00899939 0.19308 0.00125 90
1 0.696909 0.313145 0.00161739 0.00468748 0.00520238 -0.0924289 0.00125 91
1 0.280496 0.253893 0.00129394 -0.000582897 -0.00185768 -0.235769 0.00125 92
1 0.245081 0.29723 0.00130866 -0.00251219 -0.00965606 0.197109 0.00125 93
1 0.750688 0.825216 0.00144311 -0.00170105 -0.00469619 -0.244687 0.00125 94
1 0.916132 0.0704126 0.00158114 -0.000321477 0.000598342 -0.239465 0.00125 95
1 0.311771 0.689587 0.00127 0.00458537 -0.00176525 -0.322089 0.00125 96
1 0.818817 0.1818 0.00124317 0.0123939 0.00361004 -0.224065 0.00125 97
1 0.683282 0.581191 0.00139632 0.00167973 0.00159793 0.148882 0.00125 98
1 0.615659 0.150954 0.00155961 0.000721927 0.00176104 -0.0624288 0.00125 99
1 0.829891 0.464557 0.00172954 0.00818769 0.0140054 0.108542 0.00125 100
1 0.750618 0.267183 0.00129499 -0.0157012 -0.0103763 0.2022 0.00125 101
1 0.481213 0.167414 0.00129703 0.00266151 -0.0153062 0.177257 0.00125 102
1 0.458949 0.361349 0.0012306 -0.00311971 0.0033008 -0.187417 0.00125 103
1 0.0314615 0.216668 0.00141334 0.000690363 -0.00335254 -0.248019 0.00125 104
1 0.386814 0.11277 0.0015147 0.000796788 0.000883648 -0.177586 0.00125 105
1 0.295473 0.909162 0.00240503 0.000360516 0.0014971 -0.0348421 0.00125 106
1 0.440766 0.127993 0.0016168 -0.000321523 -0.000112594 -0.282758 0.00125 107
1 0.408432 0.548148 0.00133567 0.00718807 -0.00341424 0.146616 0.00125 108
1 0.731346 0.308942 0.00161627 0.0129723 -0.0180593 -0.0918263 0.00125 109
1 0.145545 0.374651 0.00135511 0.0106251 -0.00267239 0.230571 0.00125 110
1 0.418418 0.00370439 0.00136123 0.00112098 -0.00188338 0.225121 0.00125 111
1 0.574394 0.248263 0.00134235 0.0050413 0.00331888 -0.236999 0.00125 112
1 0.126794 0.137657 0.00203373 0.00200167 -0.00560119 -0.0751596 0.00125 113
1 0.105653 0.292947 0.00162587 0.00185914 -0.00485824 0.0918964 0.00125 114
1 0.817149 0.0461353 0.00123474 -0.00085965 -0.00238137 0.142203 0.00125 115
1 0.464413 0.252685 0.00129444 -0.00717635 -0.0250812 0.0452044 0.00125 116
1 0.491749 0.58046 0.00129586 -0.00629044 0.00366078 0.160122 0.00125 117
1 0.181243 0.243978 0.00135187 -0.000685877 0.00227358 -0.226616 0.00125 118
1 0.312945 0.471651 0.00126284 0.0137443 0.00836993 -0.224379 0.00125 119
1 0.538434 0.0530401 0.00246538 -0.000906139 -0.00121286 -0.0355137 0.00125 120
1 0.940201 0.467849 0.0016987 -0.00803631 0.00163535 -0.0787335 0.00125 121
1 0.656585 0.185574 0.00131589 -0.000655888 -0.000686367 -0.224869 0.00125 122
1 0.72115 0.809753 0.00150472 0.0107422 0.00201109 0.114325 0.00125 123
1 0.0486479 0.937141 0.00144396 -0.00233972 0.00541062 -0.238079 0.00125 124
1 0.0362673 0.0476167 0.00126376 -0.00250799 -0.00311205 -0.231388 0.00125 125
1 0.250287 0.66516 0.00128189 0.00119931 0.00141316 0.254037 0.00125 126
1 0.463415 0.858167 0.00122863 -0.00835609 -0.00758661 0.112688 0.00125 127
1 0.677512 0.721753 0.0018032 -0.00428934 -0.0110969 -0.215969 0.00125 128
1 0.728455 0.259641 0.00140033 0.00281926 0.0190897 0.152703 0.00125 129
1 0.156008 0.703834 0.00157146 0.00326325 -0.00119371 -0.230094 0.00125 130
1 0.954729 0.815399 0.00130099 -0.0153744 0.00195637 0.181438 0.00125 131
1 0.599862 0.0154798 0.00149144 0.00439582 0.00222617 -0.0743013 0.00125 132
1 0.512526 0.472245 0.00183394 0.00175128 0.00299859 -0.22411 0.00125 133
1 0.166944 0.777155 0.00137646 -0.022835 -0.00185545 -0.201384 0.00125 134
1 0.714528 0.41205 0.0021297 -2.3958e-05 0.00657679 -0.0609564 0.00125 135
1 0.0800454 0.173832 0.00157667 -0.00324484 0.00230145 -0.183684 0.00125 136
1 0.949911 0.33248 0.0013986 -0.000210509 -0.00140135 0.15262 0.00125 137
1 0.367526 0.119154 0.00198093 -0.00519096 -0.000618243 -0.0615356 0.00125 138
1 0.827751 0.900446 0.00178234 -0.00131859 0.002764 -0.0876692 0.00125 139
1 0.907717 0.36884 0.00124076 -0.00100674 0.00256548 -0.214352 0.00125 140
1 0.081506 0.93512 0.00194799 -0.0106517 0.002859 -0.186478 0.00125 141
1 0.665782 0.676332 0.00150264 -0.00659701 -0.00310957 -0.196192 0.00125 142
1 0.337645 0.442476 0.0014019 0.00419903 0.00370601 -0.199745 0.00125 143
1 0.941322 0.051109 0.00131372 -0.00144457 0.0100797 -0.0289394 0.00125 144
1 0.342734 0.343204 0.00232209 -0.000952821 0.00218533 -0.0422349 0.00125 145
1 0.940604 0.0202588 0.00154148 -0.00505718 0.00155226 0.0985249 0.00125 146
1 0.242406 0.941255 0.0013479 -0.000729559 -0.0033838 -0.220198 0.00125 147
1 0.879158 0.751039 0.00123067 -0.0101185 -0.0094704 0.0287331 0.00125 148
1 0.49545 0.8045 0.00166792 -0.00592074 0.0106132 -0.0983351 0.00125 149
1 0.931404 0.593227 0.00152287 0.000302626 -0.00422516 0.110093 0.00125 150
1 0.0259522 0.54154 0.00220992 0.00099954 -0.00218789 0.0158833 0.00125 151
1 0.355745 0.772047 0.00175357 -0.000188425 -0.00217662 0.123916 0.00125 152
1 0.160367 0.868268 0.00138075 0.00494217 -0.00104793 0.25025 0.00125 153
1 0.300869 0.427185 0.00143036 0.000794542 0.000340794 0.22099 0.00125 154
1 0.640356 0.183447 0.00172205 -0.00143258 -0.00827188 -0.0902807 0.00125 155
1 0.48118 0.511133 0.00145371 0.0217231 0.0150427 0.209707 0.00125 156
1 0.554299 0.938815 0.00132922 0.000578733 0.00213643 0.199429 0.00125 157
1 0.596243 0.030746 0.00134211 -0.000442764 -0.00196539 0.195897 0.00125 158
1 0.169641 0.940406 0.00158042 0.00672163 -6.88122e-05 -0.180635 0.00125 159
1 0.923952 0.383262 0.00128006 -0.00199592 0.0017491 0.191218 0.00125 160
1 0.912042 0.53851 0.00156335 -0.00011996 0.00184152 0.0844369 0.00125 161
1 0.322084 0.250761 0.00136282 -0.00583072 -0.00300597 0.147185 0.00125 162
1 0.276842 0.745098 0.0013576 -0.005837 -0.00306045 0.166638 0.00125 163
1 0.0192333 0.818796 0.00149717 -0.011918 -0.00993892 -0.101857 0.00125 164
1 0.166115 0.280619 0.00146005 0.00451107 0.00290986 0.161922 0.00125 165
1 0.586265 0.928754 0.00133171 0.00390443 0.00954343 -0.235875 0.00125 166
1 0.957753 0.922639 0.00186812 -0.00647605 0.000646281 -0.0140352 0.00125 167
1 0.14248 0.161093 0.00171652 0.0124944 0.00745793 -0.218413 0.00125 168
1 0.874536 0.176398 0.00123154 0.0109329 0.00433398 0.0845978 0.00125 169
1 0.873693 0.884922 0.00123335 0.000624335 -0.000709397 -0.131754 0.00125 170
1 0.736572 0.925991 0.00164656 -0.00605007 -0.00444421 -0.230266 0.00125 171
1 0.298792 0.103361 0.00130825 0.0017913 -0.00375923 -0.311883 0.00125 172
1 0.546506 0.725857 0.0015898 0.00529805 -0.00756902 0.142591 0.00125 173
1 0.689212 0.0365165 0.00135386 -0.0100557 0.0104923 0.164246 0.00125 174
1 0.774529 0.123292 0.00123112 0.000299094 0.000158559 -0.0724544 0.00125 175
1 0.779939 0.348308 0.00131435 -0.00687692 0.00402875 -0.235203 0.00125 176
1 0.582543 0.265536 0.00162093 -0.00146364 -0.00371901 0.0576334 0.00125 177
1 0.0184524 0.65708 0.00140798 -0.00252696 0.00643832 0.146514 0.00125 178
1 0.607236 0.59592 0.00122925 -0.00566714 0.00781086 0.127755 0.00125 179
1 0.0522654 0.566826 0.00123988 0.0048142 -0.000637507 -0.201788 0.00125 180
1 0.597431 0.552082 0.00150186 -0.00415769 0.00869885 -0.175675 0.00125 181
1 0.540659 0.555517 0.00140128 0.0142101 0.0117446 -0.239405 0.00125 182
1 0.45611 0.559846 0.00144108 0.00043359 0.000487114 0.139787 0.00125 183
1 0.106661 0.117164 0.00148318 0.00382293 -0.00605565 0.227535 0.00125 184
1 0.595543 0.595391 0.00147851 -0.01503 0.00218564 -0.195883 0.00125 185
1 0.363613 0.232849 0.00185847 -0.0118034 -0.0164678 -0.0748585 0.00125 186
1 0.877881 0.116863 0.002179 0.00504177 0.00889127 -0.0143588 0.00125 187
1 0.205532 0.72589 0.00144103 0.0119471 0.0107969 0.0997853 0.00125 188
1 0.466102 0.349794 0.00180535 0.00590158 0.0219826 -0.216008 0.00125 189
1 0.836668 0.769459 0.00132329 0.00766679 0.0129046 -0.239234 0.00125 190
1 0.958676 0.454371 0.00147905 -0.00840284 -0.00286854 -0.238758 0.00125 191
1 0.322317 0.410953 0.00130729 0.00167641 0.00934666 0.180466 0.00125 192
1 0.64132 0.371063 0.00142212 0.00249661 0.00301086 0.103361 0.00125 193
1 0.925264 0.220224 0.00123196 -0.00450925 -0.00538111 0.0251207 0.00125 194
1 0.0651525 0.502933 0.00139109 -0.00495834 -0.00309696 -0.239048 0.00125 195
1 0.604385 0.54342 0.00149562 -0.00391175 0.00602763 0.072636 0.00125 196
1 0.550339 0.617766 0.00131057 -4.20226e-05 -0.00345438 0.181806 0.00125 197
1 0.273134 0.279062 0.00140073 -0.0054733 -0.00765787 0.148793 0.00125 198
1 0.442311 0.870644 0.00167597 -0.0018985 0.00483918 -0.0854763 0.00125 199
1 0.34308 0.546982 0.00134904 -0.00404086 -0.00390784 -0.253384 0.00125 200
1 0.32564 0.797282 0.00147206 -0.000869897 -0.00255583 0.0825432 0.00125 201
1 0.0674311 0.218968 0.00133053 -0.00451283 0.00158226 0.192969 0.00125 202
1 0.264408 0.522613 0.0016948 -0.00978435 0.00870327 -0.273198 0.00125 203
1 0.118741 0.349727 0.00163758 -0.00220253 -0.00273368 -0.172237 0.00125 204
1 0.487315 0.0347852 0.00123353 0.000180157 -0.00118955 -0.14393 0.00125 205
1 0.623736 0.75686 0.00164232 -0.00104759 0.00349483 0.126432 0.00125 206
1 0.734294 0.0703003 0.00163382 0.00252934 -0.00899482 -0.232497 0.00125 207
1 0.770128 0.49803 0.00145435 -0.000796318 0.00240366 -0.108274 0.00125 208
1 0.788586 0.349762 0.00154889 0.00156245 -0.00495997 -0.1866 0.00125 209
1 0.51311 0.536051 0.00140493 0.00232137 -0.00283988 0.148059 0.00125 210
1 0.711206 0.326811 0.00172606 -0.0249668 0.00246804 -0.224279 0.00125 211
1 0.603311 0.283986 0.00131409 0.00309799 -0.00470567 0.232511 0.00125 212
1 0.706701 0.957954 0.00124763 -0.000887912 -0.00204028 -0.245723 0.00125 213
1 0.121917 0.873798 0.00175954 0.00696468 -0.00513477 0.116701 0.00125 214
1 0.574244 0.914946 0.00129968 -0.00130526 0.00154555 -0.240039 0.00125 215
1 0.0526452 0.518666 0.00129953 -0.00254336 0.000764774 0.181864 0.00125 216
1 0.761887 0.372 0.00125726 0.00289999 -0.00147201 0.17833 0.00125 217
1 0.731027 0.838645 0.00230221 0.00276487 -0.00518731 -0.0635062 0.00125 218
1 0.0701418 0.699218 0.00200171 -0.00327859 -0.00495196 -0.0646523 0.00125 219
1 0.926663 0.795323 0.00143412 -9.76559e-05 0.0027381 0.218114 0.00125 220
1 0.346042 0.540307 0.00148395 -0.000620397 0.00691688 -0.195042 0.00125 221
1 0.91578 0.234282 0.00134861 -0.00314336 0.000167667 -0.236391 0.00125 222
1 0.0917778 0.73161 0.00132997 0.00479035 0.00716731 -0.239031 0.00125 223
1 0.124118 0.906731 0.00151123 -0.0217873 0.00188525 -0.19067 0.00125 224
1 0.496047 0.186335 0.00128965 0.00681025 -0.004408 0.00356977 0.00125 225
1 0.467106 0.895237 0.00130387 0.00065917 -0.00293365 -0.235048 0.00125 226
1 0.873973 0.0306793 0.00133965 0.00833567 0.000975319 -0.236804 0.00125 227
1 0.845192 0.949147 0.00127241 0.00554895 -0.00563057 0.215586 0.00125 228
1 0.0759484 0.21601 0.00157889 0.0148617 0.0304358 -0.165521 0.00125 229
1 0.510468 0.149076 0.00162848 0.012658 -0.00691473 -0.0913293 0.00125 230
1 0.564309 0.523707 0.00134577 -0.00543498 0.00254651 0.167296 0.00125 231
1 0.514008 0.735973 0.00123255 -0.00564085 0.00142399 -0.126487 0.00125 232
1 0.461904 0.00241844 0.00153909 0.00677502 -0.00554944 0.106593 0.00125 233
1 0.838528 0.765992 0.00235045 -0.00998702 -0.00110337 -0.119843 0.00125 234
1 0.202347 0.393899 0.00192486 -0.00851267 0.00469538 -0.237411 0.00125 235
1 0.356704 0.0953358 0.00127557 0.00552661 -0.00478101 0.189827 0.00125 236
1 0.121439 0.134755 0.00127548 -0.000471785 0.00112863 -0.239806 0.00125 237
1 0.450979 0.602861 0.00166274 -0.00362594 -0.0132735 -0.230213 0.00125 238
1 0.339748 0.901202 0.00126887 -0.00159665 -0.000726127 0.242181 0.00125 239
1 0.68955 0.955535 0.00123074 -0.00516461 0.0053883 -0.0659539 0.00125 240
1 0.85311 0.844719 0.00153396 0.0115554 0.0194142 0.106252 0.00125 241
1 0.154555 0.120474 0.00206515 -0.0078381 -0.000528793 -0.214019 0.00125 242
1 0.065234 0.110919 0.00140521 0.00968365 0.00123631 0.14787 0.00125 243
1 0.222166 0.365653 0.00207225 0.00242258 0.00140953 -0.0270128 0.00125 244
1 0.443578 0.603139 0.00220152 -0.000621972 0.00860475 -0.0532094 0.00125 245
1 0.0335783 0.574689 0.00143925 -0.0038177 0.00149866 -0.24896 0.00125 246
1 0.230714 0.234074 0.00152842 -0.0020738 -0.0050275 0.104286 0.00125 247
1 0.754162 0.344626 0.0024547 0.00279911 0.0357932 0.0291636 0.00125 248
1 0.165304 0.151641 0.0019217 0.00671232 -0.000808207 -0.197306 0.00125 249
1 0.277195 0.69465 0.00156669 -0.00304728 -0.00217904 -0.18601 0.00125 250
1 0.458591 0.756394 0.00136291 0.00153064 0.00869695 0.133233 0.00125 251
1 0.22984 0.933248 0.00126002 0.00847868 -0.0115134 0.18831 0.00125 252
1 0.129839 0.908381 0.0014278 -0.00097333 0.00620544 -0.230977 0.00125 253
1 0.337938 0.886442 0.00190781 -0.00410426 -0.00549406 -0.148792 0.00125 254
1 0.245568 0.919437 0.00139298 0.00435072 -0.0035335 0.254845 0.00125 255
1 0.00878041 0.543179 0.00143982 0.00136482 -0.000886412 -0.227366 0.00125 256
1 0.711821 0.685924 0.00224045 -0.0049397 0.00473035 0.0163507 0.00125 257
1 0.389811 0.936454 0.00133505 0.00240966 -0.00120347 -0.236765 0.00125 258
1 0.193895 0.801967 0.00160894 0.00412311 -0.00129186 -0.179271 0.00125 259
1 0.402911 0.954405 0.00172452 -0.000250854 -0.00885658 -0.0957487 0.00125 260
1 0.532177 0.0420559 0.00184164 -0.00772222 -0.00366615 -0.0327929 0.00125 261
1 0.913859 0.858006 0.00157012 -0.00863191 -0.00821787 0.0998976 0.00125 262
1 0.642283 0.710749 0.00133185 0.00987767 -0.00473219 -0.236996 0.00125 263
1 0.574813 0.70325 0.0015052 -0.00257219 -0.000766203 -0.294606 0.00125 264
1 0.739025 0.0910165 0.00239454 0.00613466 -0.00149463 -0.12554 0.00125 265
1 0.0407507 0.811293 0.00206604 0.00662398 -0.0152725 -0.0620136 0.00125 266
1 0.408585 0.677594 0.00186196 0.00272686 0.0144849 -0.0310242 0.00125 267
1 0.867835 0.533788 0.00169056 0.000623081 -0.00234341 0.106549 0.00125 268
1 0.704285 0.891451 0.00155165 0.00966884 -0.00386578 -0.0976075 0.00125 269
1 0.893909 0.645211 0.00126299 0.000939968 -0.00165226 0.165895 0.00125 270
1 0.577521 0.402709 0.00168532 -0.00243857 0.000999785 -0.0863749 0.00125 271
1 0.590129 0.643535 0.00123345 -0.0107368 -0.00109869 -0.162811 0.00125 272
1 0.577014 0.505314 0.00189487 0.00750777 0.00577158 -0.0691019 0.00125 273
1 0.737353 0.169553 0.00234433 -0.00205751 -0.000761649 -0.0109299 0.00125 274
1 0.3894 0.266512 0.00233857 0.0069289 -0.00263084 -0.116326 0.00125 275
1 0.907101 0.671938 0.00173819 0.00103069 -0.00594182 -0.201642 0.00125 276
1 0.839214 0.570441 0.00129429 -6.29614e-05 0.0047574 0.269341 0.00125 277
1 0.356927 0.150268 0.00145082 0.000368679 -0.000273101 -0.299452 0.00125 278
1 0.386253 0.913573 0.00136007 -0.00113938 -0.00231959 -0.236971 0.00125 279
1 0.0709663 0.252662 0.00138644 -0.00293113 -0.00859698 -0.111196 0.00125 280
1 0.956863 0.0686728 0.00130311 0.00619353 0.00170371 -0.190524 0.00125 281
1 0.561821 0.775176 0.00147398 -0.000452071 -0.00860583 -0.196003 0.00125 282
1 0.109739 0.846962 0.00160955 0.00690965 0.0039497 -0.238859 0.00125 283
1 0.154757 0.310572 0.00173149 -0.00475455 0.00765041 -0.0836383 0.00125 284
1 0.64887 0.538214 0.00126577 0.0110878 0.0136064 0.209955 0.00125 285
1 0.613321 0.769313 0.00144626 0.00401628 0.00201519 -0.239572 0.00125 286
1 0.944402 0.216363 0.00146374 0.00443408 -0.0177376 -0.112945 0.00125 287
1 0.923535 0.0621768 0.00168724 -0.0108777 -2.85981e-05 -0.0867506 0.00125 288
1 0.876419 0.569043 0.00218417 -0.00481976 -0.00229824 -0.157935 0.00125 289
1 0.800381 0.716022 0.00125388 0.011184 -0.0143005 0.0956125 0.00125 290
1 0.211394 0.138145 0.00153926 -0.00421503 0.00648282 -0.237185 0.00125 291
1 0.729025 0.783404 0.00142181 -0.00319381 0.00238394 -0.189536 0.00125 292
1 0.904968 0.396815 0.0015217 0.00549485 0.00596253 -0.0935539 0.00125 293
1 0.753725 0.261869 0.00135742 0.00308491 0.000634323 -0.227301 0.00125 294
1 0.782398 0.0221675 0.00181689 -0.0152354 -0.00280558 -0.215755 0.00125 295
1 0.357416 0.687887 0.00146891 -0.00019206 0.0014785 -0.0913863 0.00125 296
1 0.273176 0.877897 0.00187701 0.00211031 -0.00262632 -0.0172563 0.00125 297
1 0.211086 0.318303 0.00143949 -0.0143861 0.00344545 0.255874 0.00125 298
1 0.148898 0.0607771 0.00207798 -0.0123964 0.00674744 -0.0551317 0.00125 299
1 0.519177 0.383333 0.00147208 -0.0150467 -0.0125145 -0.196799 0.00125 300
1 0.198659 0.489257 0.00210177 0.00289904 5.73482e-05 -0.173317 0.00125 301
1 0.338001 0.541468 0.00167941 -0.00296468 -0.00100572 0.0948871 0.00125 302
1 0.75738 0.784373 0.00143319 -0.00542876 0.00605762 0.140669 0.00125 303
1 0.0321482 0.666479 0.00145563 0.000432448 0.00596611 0.118932 0.00125 304
1 0.138224 0.316083 0.00123012 -0.00199792 0.000335342 -0.00162285 0.00125 305
1 0.828834 0.123829 0.00170941 -0.00029443 -0.0172032 -0.222248 0.00125 306
1 0.780851 0.274062 0.00130456 -0.00281803 0.014265 -0.23602 0.00125 307
1 0.489518 0.302071 0.00137624 -0.000617239 0.00248444 -0.0856713 0.00125 308
1 0.235363 0.741552 0.00133025 -0.00423714 0.00749566 0.171473 0.00125 309
1 0.166704 0.614556 0.00130019 -0.0109073 -0.0148877 -0.234028 0.00125 310
1 0.0445434 0.0151909 0.00141685 -0.00309645 0.000980246 -0.302864 0.00125 311
1 0.265083 0.730459 0.00243244 0.0230082 -0.011677 -0.048277 0.00125 312
1 0.170353 0.136715 0.00122862 -0.00203675 0.000505266 -0.120094 0.00125 313
1 0.0317359 0.833111 0.00127538 -0.000642317 -0.0107787 -0.231629 0.00125 314
1 0.914397 0.650819 0.00129858 -0.00321282 0.00645526 -0.25191 0.00125 315
1 0.688407 0.284685 0.00129308 0.00886568 0.0147535 0.178858 0.00125 316
1 0.245839 0.625191 0.00151209 -0.000964786 -0.00419275 0.108846 0.00125 317
1 0.198284 0.665161 0.00132758 -0.0134772 -0.000984175 0.192395 0.00125 318
1 0.807674 0.42416 0.00123041 -0.00078013 -0.00528889 0.0345335 0.00125 319
1 0.20758 0.0272748 0.00125672 -0.00141683 -0.00170251 0.19562 0.00125 320
1 0.656265 0.809481 0.00150553 -0.00147766 0.00682491 -0.193486 0.00125 321
1 0.338952 0.664328 0.00122823 -0.000732207 -0.00401129 0.112554 0.00125 322
1 0.332063 0.761629 0.00180472 0.00712122 0.00387894 0.139942 0.00125 323
1 0.126697 0.684711 0.00177014 0.0151738 0.00941229 -0.151501 0.00125 324
1 0.506831 0.353591 0.00132705 -0.00549659 0.00188977 -0.252642 0.00125 325
1 0.337429 0.476642 0.00142013 -0.000362887 0.00255368 0.143134 0.00125 326
1 0.628494 0.152955 0.00200471 -0.00641535 -0.0016098 -0.000316604 0.00125 327
1 0.772507 0.312973 0.00139584 -0.00262035 -0.00634738 0.221821 0.00125 328
1 0.354982 0.545462 0.00136941 0.00372325 0.000191824 0.224873 0.00125 329
1 0.178186 0.428575 0.0013777 0.00892073 0.00505747 0.182595 0.00125 330
1 0.931623 0.875463 0.00226606 -0.0030248 -0.0119621 0.0201476 0.00125 331
1 0.642639 0.498415 0.0018042 0.000166571 -0.00180249 0.114612 0.00125 332
1 0.151563 0.319878 0.00131964 -0.00187593 0.00181132 -0.231157 0.00125 333
1 0.0481265 0.122871 0.00204258 -0.00358494 0.000361888 -0.183786 0.00125 334
1 0.479078 0.828499 0.00149505 0.00217144 0.00329223 -0.295482 0.00125 335
1 0.0777035 0.591721 0.00139338 0.00361983 -0.00302442 0.136728 0.00125 336
1 0.183641 0.439007 0.00129558 -0.0061954 0.00339095 -0.230468 0.00125 337
1 0.175038 0.0844923 0.00139715 -0.00831161 -0.0105701 0.150139 0.00125 338
1 0.160854 0.143299 0.00166355 0.00123408 0.00149266 -0.229029 0.00125 339
1 0.778057 0.317453 0.00193064 -0.00120578 -0.000371122 -0.0356898 0.00125 340
1 0.87806 0.508975 0.00158691 0.00138388 0.00131955 -0.187124 0.00125 341
1 0.619076 0.0410035 0.00123287 -0.00176051 -0.00111389 0.12063 0.00125 342
1 0.928199 0.254375 0.00131872 -0.00056364 0.00118081 0.17632 0.00125 343
1 0.837189 0.941032 0.00135531 0.00473363 -0.0133692 -0.247597 0.00125 344
1 0.68802 0.94253 0.00158199 -0.00399509 0.00820143 -0.229844 0.00125 345
1 0.588195 0.519286 0.00154276 0.00251712 -0.00384814 -0.188902 0.00125 346
1 0.362285 0.194425 0.00123728 -0.00447961 2.81161e-06 0.167334 0.00125 347
1 0.362933 0.40947 0.00169092 -0.00825215 -0.00952098 -0.0873723 0.00125 348
1 0.00996823 0.0323005 0.00125824 -0.00694532 0.00646187 0.176464 0.00125 349
1 0.936113 0.843714 0.00140635 -0.0181657 0.00245648 -0.230356 0.00125 350
1 0.267031 0.0231275 0.00224251 0.00153045 -0.00920727 0.0183409 0.00125 351
1 0.407458 0.857292 0.00148445 -0.00325651 0.0161905 -0.236 0.00125 352
1 0.623744 0.679475 0.0012628 0.00774353 -0.00645141 0.193402 0.00125 353
1 0.244026 0.951205 0.00131547 0.000510292 -0.0070885 0.182052 0.00125 354
1 0.640767 0.944916 0.00175018 -0.0160647 0.00880462 -0.078628 0.00125 355
1 0.625939 0.776922 0.0016397 0.0128675 0.000286882 -0.169221 0.00125 356
1 0.909785 0.830741 0.00179043 0.0276599 -0.00802388 0.126327 0.00125 357
1 0.354056 0.82372 0.00123385 -0.00470247 -0.00473421 0.129893 0.00125 358
1 0.457832 0.509982 0.00136446 -0.00232574 0.000329099 -0.23838 0.00125 359
1 0.62892 0.621799 0.00133518 -0.00480236 0.00712387 0.148143 0.00125 360
1 0.944132 0.290907 0.00182365 0.0151391 0.00933957 -0.0857386 0.00125 361
1 0.589808 0.524963 0.00126638 -0.0021546 0.00868704 -0.247379 0.00125 362
1 0.736754 0.922966 0.00161703 0.00879343 0.00529933 0.0911392 0.00125 363
1 0.824566 0.77654 0.00159949 0.00228193 0.00368616 0.0929553 0.00125 364
1 0.00763324 0.0897453 0.00124833 -0.000471503 -0.0021996 0.19195 0.00125 365
1 0.594154 0.782159 0.00159818 0.00258757 0.00617378 0.0528217 0.00125 366
1 0.12072 0.691763 0.00124637 0.00168741 0.0125828 -0.24419 0.00125 367
1 0.131478 0.532331 0.00169335 -0.0052024 0.00236134 0.059514 0.00125 368
1 0.36454 0.928507 0.00154119 0.00511398 0.00358799 -0.231416 0.00125 369
1 0.691587 0.191911 0.00130764 -0.027876 -0.000318904 0.17986 0.00125 370
1 0.401896 0.726338 0.00136686 7.16811e-06 0.00660264 -0.0571925 0.00125 371
1 0.722898 0.583615 0.00127332 -0.000237243 -0.0061217 0.240183 0.00125 372
1 0.437613 0.0150471 0.00160083 -0.00594067 0.00703272 0.0528114 0.00125 373
1 0.718485 0.597019 0.00248749 -0.00910138 -0.00171888 -0.0779615 0.00125 374
1 0.278366 0.371727 0.00155545 -0.0034045 -0.000547039 0.0566173 0.00125 375
1 0.947268 0.572827 0.00202205 -0.00536888 -0.00228377 -0.182962 0.00125 376
1 0.282174 0.534941 0.0012498 -0.00467744 0.00849801 0.244795 0.00125 377
1 0.907984 0.487493 0.00247514 0.00088368 0.00169826 -0.0452611 0.00125 378
1 0.563001 0.796053 0.00152344 -0.0017784 0.0153838 -0.230787 0.00125 379
1 0.290808 0.516248 0.00202658 0.0023522 -0.00627172 -0.187412 0.00125 380
1 0.739018 0.403414 0.00153178 0.0022132 -0.00270784 -0.0606595 0.00125 381
1 0.491704 0.704281 0.00135255 -0.00265247 -0.00210107 -0.237074 0.00125 382
1 0.273704 0.739461 0.00157045 -0.00074066 -0.00220711 0.146669 0.00125 383
1 0.57295 0.0731485 0.00131041 0.00983322 0.0151825 0.177334 0.00125 384
1 0.74566 0.0986865 0.00184795 -0.0137246 0.00934387 -0.211531 0.00125 385
1 0.618301 0.801418 0.00148506 0.00665782 0.000669197 -0.195172 0.00125 386
1 0.888265 0.340683 0.00176936 0.000504893 0.00489048 -0.0442778 0.00125 387
1 0.108548 0.522218 0.00127178 -0.0100745 -0.00314094 -0.22795 0.00125 388
1 0.559167 0.782496 0.00126669 -0.00901359 0.00292342 -0.23059 0.00125 389
1 0.286149 0.853377 0.00133814 -0.000897066 -0.0128313 0.188828 0.00125 390
1 0.894023 0.262021 0.00185375 0.00178308 0.0010933 -0.152815 0.00125 391
1 0.698251 0.0497432 0.00185948 0.000958081 0.00148692 -0.150122 0.00125 392
1 0.0737764 0.568325 0.00131501 -0.00239227 -0.00875027 -0.234626 0.00125 393
1 0.0159432 0.82259 0.00131791 0.00613708 -0.000377269 -0.234582 0.00125 394