ITEM: TIMESTEP
1000000
ITEM: NUMBER OF ATOMS
10000
ITEM: BOX BOUNDS pp pp ff
0.0000000000000000e+00 3.1608848875000001e-01
0.0000000000000000e+00 3.1608848875000001e-01
-1.2500000000000001e-02 1.2500000000000001e-02
ITEM: ATOMS type x y z vx vy vz radius id
1 0.279161 0.269667 0.00146613 -0.00564563 -0.00231252 0.191109 0.00125 1
1 0.108115 0.00856033 0.00143895 -0.0104187 -0.00833297 -0.0980717 0.00125 2
1 0.0262938 0.043399 0.00129552 -0.014243 -0.00937488 0.0561446 0.00125 3
1 0.076543 0.0857327 0.00190939 -0.036277 -0.0286135 -0.0406579 0.00125 4
1 0.177943 0.286752 0.00181674 -0.00356882 0.0387757 -0.059518 0.00125 5
1 0.0189917 0.299898 0.00222245 -0.0164058 -0.0119836 -0.0156356 0.00125 6
1 0.126969 0.18451 0.00159554 -0.00537465 -0.0339474 -0.207249 0.00125 7
1 0.0751131 0.258072 0.00149571 -0.0945858 -0.00756094 -0.0999815 0.00125 8
1 0.183007 0.262592 0.0012344 0.0122506 -0.0353907 0.139446 0.00125 9
1 0.0550604 0.0291886 0.00187562 -0.0169035 0.0167245 -0.0404682 0.00125 10
1 0.167206 0.287402 0.00135515 -0.018288 0.0207 -0.00289112 0.00125 11
1 0.166553 0.0425168 0.00165194 -0.0280294 0.0126866 0.0956929 0.00125 12
1 0.145634 0.258511 0.00169916 0.00189551 0.0316351 -0.0866046 0.00125 13
1 0.173301 0.253233 0.00141412 -0.0732429 0.024346 -0.271746 0.00125 14
1 0.312964 0.213496 0.00158021 0.044656 0.0179012 -0.211222 0.00125 15
1 0.307425 0.0167346 0.00244249 -0.0242572 -0.0169935 -0.0694135 0.00125 16
1 0.0370305 0.127486 0.00179812 -0.00254593 -0.00873061 -0.200435 0.00125 17
1 0.0484923 0.00748946 0.00131099 0.0654041 0.000699373 -0.21651 0.00125 18
1 0.223717 0.0552116 0.00129822 -0.0236821 -0.0212937 0.186585 0.00125 19
1 0.303051 0.209595 0.00140861 -0.00678458 -0.0110037 0.212964 0.00125 20
1 0.065939 0.210081 0.00197923 0.0524776 0.0715847 -0.0811518 0.00125 21
1 0.214198 0.169307 0.001632 -0.094316 -0.0304633 -0.170389 0.00125 22
1 0.0881766 0.246651 0.00160919 -0.081463 0.0360446 -0.247537 0.00125 23
1 0.0475193 0.105199 0.00168409 -0.0462243 -0.0127066 -0.132873 0.00125 24
1 0.129175 0.236065 0.00171092 0.0211216 0.00938383 0.121301 0.00125 25
1 0.240372 0.229323 0.00132701 -0.0209326 0.0260664 0.163033 0.00125 26
1 0.0431603 0.0401631 0.00216174 0.0166004 0.0284528 -0.0349442 0.00125 27
1 0.0524252 0.0699554 0.00146601 -0.0123762 0.000299333 0.107804 0.00125 28
1 0.0668861 0.0262158 0.00141058 -0.0669676 0.00260721 0.0916799 0.00125 29
1 0.175294 0.00621463 0.00142168 0.0162096 -0.0197247 -0.0792489 0.00125 30
1 0.217848 0.0281918 0.00187291 0.0362175 0.00960821 -0.0924003 0.00125 31
1 0.193565 0.211219 0.00132425 0.0255134 -0.0141139 0.215776 0.00125 32
1 0.238566 0.117673 0.0018409 0.0551989 -0.0514204 -0.0837217 0.00125 33
1 0.191254 0.0861678 0.00153994 0.00105684 -0.0112121 -0.192219 0.00125 34
1 0.018011 0.201426 0.00150289 0.0607199 0.0297931 -0.162846 0.00125 35
1 0.00494498 0.206746 0.00177616 0.043239 -0.0270916 -0.17439 0.00125 36
1 0.285532 0.295223 0.00161755 -0.0270005 0.0109614 0.160211 0.00125 37
1 0.131719 0.276963 0.00133185 0.000132937 0.0202587 0.225899 0.00125 38
1 0.267828 0.306023 0.00234664 0.00850418 -0.022439 -0.044023 0.00125 39
1 0.0191873 0.189588 0.00125371 0.0263392 -0.0161818 -0.0325411 0.00125 40
1 0.252535 0.180557 0.00134997 -0.0114003 0.0760395 0.175843 0.00125 41
1 0.244851 0.0494 0.00147172 0.0408722 0.0817812 0.135357 0.00125 42
1 0.0705827 0.11062 0.00140605 0.0328195 -0.0266192 -0.00340134 0.00125 43
1 0.0622787 0.00655422 0.00139172 0.00289873 0.0042025 -0.227799 0.00125 44
1 0.113664 0.114149 0.00140274 0.00586824 0.00387865 0.174748 0.00125 45
1 0.225223 0.312296 0.00250438 -0.0633627 -0.0306674 -0.0351806 0.00125 46
1 0.0276501 0.204797 0.00176906 -0.107297 0.0297828 -0.0828821 0.00125 47
1 0.0376117 0.176729 0.00234932 0.0164031 -0.00378154 -0.0251792 0.00125 48
1 0.312784 0.00231259 0.00134421 0.00347325 0.0142181 -0.0274382 0.00125 49
1 0.303227 0.282602 0.0015954 0.0284395 0.0740892 -0.072552 0.00125 50
1 0.222676 0.274877 0.00134426 0.00704529 -0.0172244 0.227528 0.00125 51
1 0.0310138 0.195029 0.00129252 0.0281565 0.0246172 0.0314715 0.00125 52
1 0.132547 0.273138 0.00172901 0.00654224 0.0361857 -0.166798 0.00125 53
1 0.191483 0.279182 0.00177003 0.0922363 -0.0583214 -0.109702 0.00125 54
1 0.164428 0.0932272 0.00137235 0.00490163 -0.0320203 0.239683 0.00125 55
1 0.152036 0.238654 0.00220592 0.0116615 0.0279716 -0.151601 0.00125 56
1 0.0843422 0.126156 0.00149145 -0.0102511 -0.0167439 -0.229522 0.00125 57
1 0.272598 0.212573 0.00230075 0.0228992 0.0332127 0.015236 0.00125 58
1 0.0971863 0.219358 0.00177617 -0.011293 0.029406 -0.267488 0.00125 59
1 0.265875 0.208119 0.00167647 -0.0426882 -0.0435955 -0.26002 0.00125 60
1 0.274675 0.271966 0.00141037 -0.00769323 -0.00264211 -0.224567 0.00125 61
1 0.0409181 0.0552233 0.00123226 -0.0129454 0.00716433 0.180718 0.00125 62
1 0.0799721 0.294955 0.00239856 -0.0513716 -0.00731049 -0.0433243 0.00125 63
1 0.0305413 0.15684 0.00182103 -0.0192245 -0.0097504 -0.0233716 0.00125 64
1 0.29905 0.104794 0.00182247 -0.0851297 0.0690782 -0.143281 0.00125 65
1 0.310831 0.200053 0.00125573 -0.00907828 0.0119227 0.181626 0.00125 66
1 0.0815992 0.131418 0.00160749 -0.0025636 0.00385143 0.0953914 0.00125 67
1 0.23105 0.0129467 0.00189627 -0.0269368 0.012289 -0.0650214 0.00125 68
1 0.197732 0.235839 0.00154304 0.0291218 -0.0575485 -0.19031 0.00125 69
1 0.0137279 0.0730122 0.00144613 0.000330703 -0.0127969 -0.246157 0.00125 70
1 0.0951066 0.000477412 0.00135807 0.0230115 0.00403244 -0.297224 0.00125 71
1 0.288875 0.0842338 0.00175266 0.00260223 0.0209132 -0.257957 0.00125 72
1 0.260455 0.119044 0.00135175 0.0247213 -0.0748684 0.190208 0.00125 73
1 0.137905 0.290836 0.00135276 -0.0516937 -0.048705 0.00451843 0.00125 74
1 0.180549 0.0698926 0.00202962 -0.0337297 -0.0434288 -0.138213 0.00125 75
1 0.035849 0.130755 0.00174396 0.017734 0.0277707 -0.251088 0.00125 76
1 0.313717 0.257338 0.00148958 0.0226966 0.0127688 -0.250865 0.00125 77
1 0.224113 0.21528 0.00123771 -0.0166478 0.01276 -0.0553507 0.00125 78
1 0.174079 0.15361 0.00217183 0.0173907 0.0111892 -0.0698966 0.00125 79
1 0.253957 0.123736 0.00147814 0.0362054 0.0399361 0.219051 0.00125 80
1 0.237397 0.154355 0.00134602 -0.00968048 -0.0143693 -0.300087 0.00125 81
1 0.315333 0.0192755 0.00172949 0.00687219 -0.0389019 -0.135794 0.00125 82
1 0.0730837 0.307876 0.00176499 0.101885 0.0050399 -0.229001 0.00125 83
1 0.08835 0.100086 0.00124641 0.00688057 -0.00886543 -0.248881 0.00125 84
1 0.261136 0.0860462 0.00138052 0.0314611 0.0598401 -0.107582 0.00125 85
1 0.127433 0.0331367 0.00143176 -0.0150344 -0.0117934 -0.233532 0.00125 86
1 0.181753 0.296781 0.00124539 0.00350741 -0.00138537 -0.159464 0.00125 87
1 0.152186 0.0844247 0.0015402 0.0391378 -0.0329769 -0.201291 0.00125 88
1 0.0672147 0.20103 0.00139115 -0.00623121 -0.0310762 0.157275 0.00125 89
1 0.0694048 0.0262369 0.00178047 0.0897561 0.00930679 -0.13437 0.00125 90
1 0.118367 0.0331459 0.0012341 0.00706725 0.0200206 -0.228436 0.00125 91
1 0.114892 0.0740227 0.00125212 0.0577505 0.0584342 0.17939 0.00125 92
1 0.244501 0.00072444 0.00151643 0.0160589 -0.00849397 -0.23461 0.00125 93
1 0.0830027 0.16079 0.00221174 -0.0297524 0.0229417 -0.0574891 0.00125 94
1 0.0983723 0.183749 0.00192586 0.0474426 -0.00803933 -0.0772867 0.00125 95
1 0.0993393 0.255919 0.00215797 0.00646298 0.044933 -0.0602327 0.00125 96
1 0.113048 0.251348 0.00162499 -0.0159552 -0.0212518 -0.199642 0.00125 97
1 0.0290378 0.271592 0.00142719 -0.0566963 -0.00330128 0.129403 0.00125 98
1 0.17259 0.0502888 0.00168792 0.0119458 0.0155159 -0.0533595 0.00125 99
1 0.0719447 0.104614 0.00192115 -0.0224061 -0.0776256 -0.15907 0.00125 100
1 0.242797 0.301457 0.00200006 -0.0181471 0.00754794 -0.0920142 0.00125 101
1 0.308185 0.0715028 0.00136411 -0.0204707 -0.00634435 -0.211464 0.00125 102
1 0.128956 0.136198 0.00232149 -0.0163367 0.0431418 -0.0621347 0.00125 103
1 0.025098 0.138797 0.00150537 -0.0274243 -0.0131708 -0.197356 0.00125 104
1 0.234278 0.19818 0.00152957 -0.0024423 -0.00422448 -0.269012 0.00125 105
1 0.00205616 0.224733 0.00134331 -0.011495 -0.0231894 0.148822 0.00125 106
1 0.315224 0.126191 0.00128632 -0.0148083 -0.0378916 0.213257 0.00125 107
1 0.276936 0.0393223 0.00230248 0.0374007 -0.0416066 -0.135108 0.00125 108
1 0.0985792 0.15494 0.00135492 -0.01877 -0.0240014 -0.260701 0.00125 109
1 0.244018 0.313991 0.00140958 0.0343629 0.078715 0.0193039 0.00125 110
1 0.312924 0.095071 0.00140552 -0.0161283 0.0122195 -0.245566 0.00125 111
1 0.143473 0.0104381 0.00146899 -0.0100815 -0.00286373 0.218323 0.00125 112
1 0.199029 0.104586 0.00170457 -0.00626493 -0.00437447 -0.248617 0.00125 113
1 0.238536 0.164022 0.00134105 0.0241841 -0.0304387 -0.238275 0.00125 114
1 0.29475 0.160482 0.00146204 0.0410167 0.0304058 0.0698851 0.00125 115
1 0.0551713 0.245895 0.00127282 0.0206354 -0.0112053 0.209088 0.00125 116
1 0.247993 0.194255 0.00153355 -0.0162028 -0.0143227 -0.255038 0.00125 117
1 0.0108342 0.0220646 0.00171401 -0.0481147 -0.012811 -0.0982084 0.00125 118
1 0.187662 0.0721626 0.00148323 0.0306068 0.0133038 0.117176 0.00125 119
1 0.202634 0.211284 0.00177406 0.0263833 0.0350329 -0.0661206 0.00125 120
1 0.124247 0.22302 0.00142778 0.0570493 0.00924994 0.0831037 0.00125 121
1 0.216708 0.0206916 0.00171385 0.0110612 0.0164437 -0.101629 0.00125 122
1 0.209095 0.286318 0.00157297 -0.0109321 -0.0296901 -0.215697 0.00125 123
1 0.307077 0.187281 0.00179147 0.0102769 0.0229758 -0.184115 0.00125 124
1 0.206739 0.136623 0.00225489 -0.0438414 0.0566253 -0.0488029 0.00125 125
1 0.233754 0.187621 0.00170411 -0.00100023 0.00380401 -0.169639 0.00125 126
1 0.15534 0.118515 0.00146776 -0.0332053 0.0218911 0.163589 0.00125 127
1 0.0162188 0.0340895 0.00245859 -0.0211308 0.0162805 0.0272966 0.00125 128
1 0.0946567 0.135152 0.00128129 -0.0150493 0.0249741 -0.24775 0.00125 129
1 0.0620441 0.130374 0.00147907 -0.00528545 -0.0142549 -0.218326 0.00125 130
1 0.121151 0.263344 0.00166901 -0.00413427 -0.000468487 -0.0910524 0.00125 131
1 0.0457536 0.308968 0.00243358 0.00174235 0.00914738 -0.0855088 0.00125 132
1 0.169273 0.288545 0.00242153 -0.0229329 -0.0416426 0.00970925 0.00125 133
1 0.247495 0.167227 0.0020267 0.0354375 -0.0028275 -0.0718099 0.00125 134
1 0.025796 0.25389 0.00130505 -0.0017968 0.0191862 0.200781 0.00125 135
1 0.122363 0.171493 0.0013783 0.0342153 0.000378622 -0.209937 0.00125 136
1 0.114702 0.285746 0.00132871 0.0802561 0.036697 -0.223804 0.00125 137
1 0.181243 0.153933 0.00126096 0.00509281 0.00122431 0.0813124 0.00125 138
1 0.133991 0.189318 0.00251314 0.0363773 -0.0202817 -0.0352157 0.00125 139
1 0.312933 0.0093636 0.00163656 0.00139902 -0.0143878 0.0913801 0.00125 140
1 0.155933 0.313038 0.00166727 0.0176965 0.0131884 -0.218729 0.00125 141
1 0.240137 0.153528 0.0012823 0.0150338 0.0155332 -0.238952 0.00125 142
1 0.0534869 0.0555419 0.00198484 0.0115745 -0.000615104 -0.00760794 0.00125 143
1 0.168785 0.122444 0.00170806 0.00840767 -0.0171539 -0.244043 0.00125 144
1 0.159688 0.23677 0.00138905 0.0371381 0.0291625 -0.20274 0.00125 145
1 0.0559858 0.0610579 0.00209747 0.00979476 -0.0283197 -0.174712 0.00125 146
1 0.213097 0.264166 0.00138881 -0.0354244 -0.0296654 -0.264725 0.00125 147
1 0.205613 0.0718161 0.0012744 0.0409097 -0.0109418 0.219511 0.00125 148
1 0.255553 0.0187767 0.00154232 -0.0239917 -0.0175676 0.101676 0.00125 149
1 0.0945335 0.104146 0.00179364 0.0119318 0.0211881 -0.150759 0.00125 150
1 0.144034 0.122881 0.00157823 -0.0227339 -0.0536962 -0.225268 0.00125 151
1 0.108689 0.144337 0.00151106 -0.00891258 -0.0707552 0.134486 0.00125 152
1 0.116202 0.0964829 0.00149258 0.0047963 -0.0207984 -0.196096 0.00125 153
1 0.19972 0.0191935 0.00148052 -0.0327597 -0.00822056 -0.110989 0.00125 154
1 0.308451 0.21619 0.00138046 0.0084388 0.024975 -0.115441 0.00125 155
1 0.0828838 0.240665 0.00201966 -0.00825743 0.0263146 -0.169484 0.00125 156
1 0.125668 0.118276 0.00124487 0.00457 -0.00562373 -0.252524 0.00125 157
1 0.0804251 0.311479 0.00123574 -0.00135394 0.0154443 -0.129324 0.00125 158
1 0.131946 0.0888802 0.0023512 -0.000447093 0.000832788 0.0138949 0.00125 159
1 0.0916654 0.262518 0.00132575 -0.015153 -0.00116158 -0.219065 0.00125 160
1 0.00812715 0.0227958 0.0017555 -0.00976212 0.0104913 -0.264335 0.00125 161
1 0.254599 0.0596441 0.00160789 -0.0136734 -0.00161119 0.0955154 0.00125 162
1 0.249516 0.0842354 0.00202408 -0.0141157 0.0399823 -0.0389349 0.00125 163
1 0.267852 0.268779 0.0013949 -0.00727849 -0.0136347 -0.289113 0.00125 164
1 0.235984 0.264994 0.00212778 -0.0218341 0.0243432 -0.196642 0.00125 165
1 0.0538026 0.0507841 0.00124258 -0.0074734 0.0236116 0.227061 0.00125 166
1 0.242874 0.102304 0.00131541 0.069057 0.0106608 -0.13672 0.00125 167
1 0.290063 0.163898 0.00161358 0.011812 -0.00304024 -0.245254 0.00125 168
1 0.180113 0.0147526 0.00142776 0.00816629 0.0300044 -0.268697 0.00125 169
1 0.0284004 0.262696 0.00129671 0.0113862 -0.0156036 0.223086 0.00125 170
1 0.235261 0.23348 0.00144138 -0.00770162 -0.0219763 -0.0989862 0.00125 171
1 0.0457293 0.147067 0.00138339 0.0127897 -0.00552438 -0.244305 0.00125 172
1 0.258087 0.0253338 0.00128406 0.00716001 -0.0372721 0.230748 0.00125 173
1 0.180667 0.180917 0.0013046 0.000761684 0.00488134 -0.247058 0.00125 174
1 0.146371 0.193711 0.00158077 -0.0290598 0.0117208 0.104025 0.00125 175
1 0.267349 0.120537 0.00177917 0.107146 0.0243543 -0.106411 0.00125 176
1 0.128893 0.293498 0.00147934 0.0210892 -0.0058366 -0.229233 0.00125 177
1 0.200034 0.0699225 0.00138041 -0.00555786 0.0289327 -0.225566 0.00125 178
1 0.178871 0.21693 0.00215027 0.012192 0.00439899 -0.035842 0.00125 179
1 0.0195687 0.0639803 0.00150877 0.00022944 0.0225046 -0.196498 0.00125 180
1 0.176582 0.275072 0.00198463 0.0390786 -0.0515582 -0.102026 0.00125 181
1 0.247241 0.217181 0.00234777 0.0400787 -0.000818657 -0.0145864 0.00125 182
1 0.31603 0.181172 0.00192242 -0.0214665 0.0372809 -0.0535519 0.00125 183
1 0.0752875 0.0643406 0.00164978 0.0565117 0.00804265 -0.184166 0.00125 184
1 0.103042 0.197 0.0018768 -0.0157895 -0.00423091 -0.242204 0.00125 185
1 0.18647 0.278174 0.00230553 0.0110055 -0.0109237 -0.0431169 0.00125 186
1 0.138698 0.245998 0.00154168 -0.048287 0.0125732 -0.205218 0.00125 187
1 0.0616641 0.289689 0.00133257 0.00302443 0.0482237 0.196006 0.00125 188
1 0.14088 0.117819 0.0013484 -0.00714359 -0.00497141 0.228592 0.00125 189
1 0.306038 0.270823 0.00236209 0.0113852 0.0126938 -0.0408909 0.00125 190
1 0.296503 0.239609 0.00137646 0.0467873 0.0579308 0.214098 0.00125 191
1 0.0231507 0.017245 0.00123429 0.0265148 -0.0179917 0.114095 0.00125 192
1 0.111672 0.27054 0.0015771 -0.0634365 0.0214554 -0.101339 0.00125 193
1 0.014815 0.10504 0.00154725 -0.0225793 -0.00176829 0.143867 0.00125 194
1 0.0939035 0.261278 0.0013416 0.0375335 -0.00461263 0.170027 0.00125 195
1 0.306605 0.0910185 0.00146669 0.0112175 0.0239261 -0.241761 0.00125 196
1 0.190063 0.0151894 0.00126346 0.0173462 -0.00792619 0.188221 0.00125 197
1 0.00943034 0.00729061 0.00122682 -0.000861188 -0.00129033 -0.000678396 0.00125 198
1 0.0367098 0.16068 0.00187032 -0.00159459 -0.00217533 -0.155805 0.00125 199
1 0.192494 0.2689 0.00215698 0.00724064 0.0127821 -0.162715 0.00125 200
1 0.265694 0.0574762 0.00203532 -0.0903404 0.024026 -0.159411 0.00125 201
1 0.218847 0.0934697 0.00168731 0.0569914 0.00637305 -0.188766 0.00125 202
1 0.074236 0.0496773 0.00129592 0.0181919 0.00121625 0.19246 0.00125 203
1 0.239556 0.315292 0.00157859 -0.0109972 -0.0150799 -0.220494 0.00125 204
1 0.153792 0.0629372 0.00222114 -0.0391763 0.00361123 -0.105532 0.00125 205
1 0.187158 0.013177 0.00180403 -0.0296398 0.0353347 -0.250422 0.00125 206
1 0.207476 0.0731844 0.00242863 0.00396047 -0.0232288 0.00602389 0.00125 207
1 0.0268001 0.106767 0.00124199 -0.0189181 -0.0336965 0.17295 0.00125 208
1 0.291143 0.133112 0.00142116 -0.0309402 -0.0367178 0.124754 0.00125 209
1 0.033023 0.0520695 0.00147693 0.0208475 0.0138648 0.218781 0.00125 210
1 0.25922 0.291947 0.00238217 -0.00245569 0.00312022 0.00403145 0.00125 211
1 0.0896203 0.0861722 0.00165067 -0.0248969 0.01278 -0.276218 0.00125 212
1 0.28645 0.120613 0.00126537 0.0238467 0.0184483 -0.224287 0.00125 213
1 0.201092 0.142191 0.00152015 -0.0237423 0.0852427 0.178998 0.00125 214
1 0.095099 0.293017 0.00182264 -0.0118063 0.0316412 -0.180677 0.00125 215
1 0.256759 0.114231 0.00166006 0.00571058 0.00825526 0.135784 0.00125 216
1 0.146163 0.211472 0.00181937 -0.0144182 -0.00297922 -0.0757772 0.00125 217
1 0.00558144 0.0876167 0.00137231 -0.0103334 -0.000541273 -0.23237 0.00125 218
1 0.085537 0.226562 0.00149902 -0.0259834 0.010163 -0.168951 0.00125 219
1 0.0835405 0.269056 0.00125085 0.0303964 -0.0247724 0.0717465 0.00125 220
1 0.152723 0.119928 0.00151424 0.00828182 0.0124279 -0.204935 0.00125 221
1 0.258314 0.120819 0.00124792 -0.0110069 -0.0337624 -0.217568 0.00125 222
1 0.114141 0.121123 0.00138314 -0.0370153 0.0177626 0.179848 0.00125 223
1 0.0449417 0.0819478 0.00141013 0.000958967 -0.000605954 0.225719 0.00125 224
1 0.138811 0.230172 0.00158596 -0.0315233 0.00788705 0.216927 0.00125 225
1 0.161751 0.266911 0.00151772 0.00532 -0.00334587 0.212585 0.00125 226
1 0.0096294 0.284657 0.00240521 -0.019081 -0.0220735 -0.0198553 0.00125 227
1 0.129799 0.271668 0.00155063 -0.0110446 -0.0184166 -0.222688 0.00125 228
1 0.276497 0.0892746 0.00125169 0.00805542 -0.0236369 0.0664041 0.00125 229
1 0.0954285 0.0482291 0.00139372 0.0675203 -0.0654216 0.00328401 0.00125 230
1 0.104991 0.0808094 0.00196213 0.0116487 0.024684 -0.175663 0.00125 231
1 0.0167693 0.158253 0.00163719 0.00311685 -0.0151549 -0.0709581 0.00125 232
1 0.142425 0.0240332 0.00170126 0.0217139 0.0381603 0.140458 0.00125 233
1 0.175542 0.062987 0.00124094 -0.00392526 -0.00715788 0.200553 0.00125 234
1 0.306781 0.157336 0.00161394 -0.00884513 0.00572818 0.0740339 0.00125 235
1 0.284496 0.306014 0.00151024 -0.0139205 0.0159615 0.110887 0.00125 236
1 0.176161 0.0657516 0.00177172 0.0235504 -0.00542823 -0.16545 0.00125 237
1 0.175224 0.0790308 0.00145607 -0.0302935 -0.0253829 0.236867 0.00125 238
1 0.131248 0.154962 0.00153275 0.00312206 0.102788 0.09348 0.00125 239
1 0.153598 0.26565 0.0022303 -0.0223008 0.0047183 -0.147665 0.00125 240
1 0.0154054 0.240046 0.00129235 0.0128581 0.0195168 0.178909 0.00125 241
1 0.250496 0.138396 0.00134593 -0.012608 0.00776628 0.259215 0.00125 242
1 0.0231414 0.0338039 0.00125288 -0.0219542 0.0167606 0.193633 0.00125 243
1 0.113269 0.31571 0.00201809 0.00524196 -0.0513584 -0.0374378 0.00125 244
1 0.049672 0.020249 0.00191589 0.00597761 0.0613013 -0.211096 0.00125 245
1 0.0586946 0.278971 0.00148081 0.0142825 -0.0220504 -0.241953 0.00125 246
1 0.0661958 0.181127 0.00123486 -0.050287 0.0130637 -0.211493 0.00125 247
1 0.271504 0.160687 0.00127263 0.0183993 -0.0200681 0.217964 0.00125 248
1 0.187452 0.0538267 0.0018175 -0.0209463 -0.0718858 -0.185367 0.00125 249
1 0.150456 0.130556 0.0013606 -0.1199 -0.0538167 0.098728 0.00125 250
1 0.155146 0.0609576 0.00134495 0.0262097 -0.00656162 -0.0069947 0.00125 251
1 0.288455 0.135541 0.00130495 -0.0647545 0.0109486 0.174562 0.00125 252
1 0.00476709 0.242911 0.00166692 -0.039076 -0.0426026 -0.223697 0.00125 253
1 0.086045 0.0495336 0.00205775 -0.0041975 -0.00185223 -0.124083 0.00125 254
1 0.263363 0.110019 0.00147605 -0.0156228 0.00174353 0.0919991 0.00125 255
1 0.177443 0.000150664 0.00172888 -0.020728 -0.0136458 0.178784 0.00125 256
1 0.00989362 0.210178 0.00231167 -0.0172916 0.0248468 -0.130149 0.00125 257
1 0.0271325 0.0514518 0.00141871 0.0258607 0.011224 -0.220703 0.00125 258
1 0.270807 0.292801 0.00160169 -0.00786894 0.00643645 0.147147 0.00125 259
1 0.204656 0.164867 0.00246079 -0.0314729 0.0126553 0.0241206 0.00125 260
1 0.280273 0.224084 0.00144467 0.0579667 0.0149218 0.171598 0.00125 261
1 0.128956 0.304556 0.00205452 0.0225174 -0.000933554 -0.15131 0.00125 262
1 0.245997 0.267847 0.00146055 -0.0142385 0.0346222 0.184785 0.00125 263
1 0.184904 0.206679 0.00141491 0.0224801 0.0286086 -0.203932 0.00125 264
1 0.0316234 0.297724 0.00193416 0.0424828 -0.0543659 -0.145054 0.00125 265
1 0.213553 0.161018 0.00213456 -0.0168028 -0.0254506 -0.0574657 0.00125 266
1 0.167859 0.279684 0.00123724 -0.00408084 0.0207278 0.149463 0.00125 267
1 0.0370983 0.309741 0.00158351 0.0147936 0.0109087 0.125736 0.00125 268
1 0.0327502 0.258676 0.00157349 0.0406915 0.0113075 -0.257427 0.00125 269
1 0.231735 0.0366758 0.0013878 -0.0337054 -0.0420533 0.15781 0.00125 270
1 0.14818 0.296607 0.0014742 0.0355278 -0.0262941 0.173741 0.00125 271
1 0.0774259 0.0114804 0.00240854 -0.0301168 0.026249 -0.111564 0.00125 272
1 0.284556 0.123507 0.00135527 -0.023961 0.0146038 -0.225845 0.00125 273
1 0.123707 0.0738194 0.00141249 0.165285 -0.0140729 -0.0999698 0.00125 274
1 0.184529 0.0248969 0.00128272 0.010097 -0.00659557 0.0901664 0.00125 275
1 0.224258 0.298664 0.00123366 -0.00737932 0.00785343 -0.163298 0.00125 276
1 0.259424 0.264048 0.0013686 -0.0301039 -0.0230731 0.14683 0.00125 277
1 0.253269 0.272775 0.00156823 -0.007335 0.0208785 -0.182039 0.00125 278
1 0.252498 0.232626 0.00139368 0.00782715 0.0192104 -0.205818 0.00125 279
1 0.105891 0.156775 0.00149029 0.00538997 -0.00282802 -0.185117 0.00125 280
1 0.226401 0.221146 0.00144424 0.00890595 -0.0262884 -0.225926 0.00125 281
1 0.0438926 0.0199914 0.00144331 0.039002 0.0134271 0.133729 0.00125 282
1 0.309038 0.303681 0.00127147 0.00397991 0.0113976 -0.23445 0.00125 283
1 0.176093 0.0714473 0.00175372 -0.0296711 -0.0291191 -0.120492 0.00125 284
1 0.15082 0.0469512 0.00148118 -0.0187168 0.00568455 0.208934 0.00125 285
1 0.164958 0.298036 0.00134923 -0.0447745 -0.0388894 -0.0056947 0.00125 286
1 0.135863 0.0412547 0.00183347 0.0428112 -0.0211797 -0.211322 0.00125 287
1 0.311859 0.176712 0.00167082 0.0327705 -0.0126245 -0.0706211 0.00125 288
1 0.249628 0.173123 0.00130341 0.012537 -0.00940205 0.18331 0.00125 289
1 0.0703895 0.215945 0.0015807 0.00451304 -0.00346993 -0.224088 0.00125 290
1 0.047902 0.0127505 0.00151825 -0.0118058 0.0110207 -0.246849 0.00125 291
1 0.187538 0.00905446 0.00122952 0.00759491 0.0278461 -0.0510746 0.00125 292
1 0.123826 0.115049 0.00144634 -0.0245825 0.00934556 0.133523 0.00125 293
1 0.168212 0.00778326 0.00206501 -0.0114486 0.0305623 -0.127352 0.00125 294
1 0.0635796 0.149544 0.00144239 -0.00135981 -0.0827725 -0.19081 0.00125 295
1 0.171487 0.154954 0.00179532 0.0148937 0.00678473 -0.0771577 0.00125 296
1 0.0625762 0.121783 0.00178608 -0.0677369 0.0810673 -0.0587768 0.00125 297
1 0.122326 0.127103 0.00244491 0.00039229 -0.00927259 -0.10007 0.00125 298
1 0.291683 0.253828 0.00201478 -0.00371685 -0.00106376 -0.0644068 0.00125 299
1 0.0329847 0.218019 0.00198262 0.0114184 0.0400357 -0.0533692 0.00125 300
1 0.118154 0.304816 0.00152635 -0.0110325 0.025402 0.196326 0.00125 301
1 0.306234 0.203486 0.00130561 0.00234351 0.0625302 0.163058 0.00125 302
1 0.177947 0.239237 0.00227387 0.0642687 0.0438489 -0.0933864 0.00125 303
1 0.309184 0.249442 0.00123546 -0.00634082 0.00730012 0.156684 0.00125 304
1 0.036842 0.207592 0.00126288 0.0218002 0.0280409 0.217257 0.00125 305
1 0.0239875 0.172908 0.00150961 0.0677945 0.00981462 0.106069 0.00125 306
1 0.221626 0.139841 0.00158977 -0.0192566 0.0452258 -0.0956905 0.00125 307
1 0.296162 0.198693 0.00144856 0.0228699 -0.0339301 -0.220744 0.00125 308
1 0.289494 0.244008 0.0014614 0.00976845 0.0573212 0.0640117 0.00125 309
1 0.0954069 0.272499 0.00123385 0.00353592 0.00529028 0.136522 0.00125 310
1 0.205102 0.305478 0.00155992 -0.0237672 -0.00919185 0.116524 0.00125 311
1 0.00641138 0.112842 0.00164472 -0.0112451 -0.0329292 -0.156785 0.00125 312
1 0.170751 0.212209 0.0022143 0.0142168 0.00491747 -0.0545349 0.00125 313
1 0.0157162 0.18113 0.00143391 -0.007124 -0.0170502 0.144993 0.00125 314
1 0.271834 0.23922 0.00124195 -0.0157081 0.0301479 -0.206281 0.00125 315
1 0.0937648 0.0573507 0.00207149 -0.0278358 -0.0136132 -0.0696019 0.00125 316
1 0.262849 0.254851 0.00134425 -0.01323 0.0351087 -0.185509 0.00125 317
1 0.276328 0.303574 0.00207318 0.00154342 -0.0188272 -0.0421848 0.00125 318
1 0.0298205 0.206426 0.00139241 0.047367 0.0584124 0.0207076 0.00125 319
1 0.18472 0.191856 0.00193442 0.0414003 0.00638689 -0.0660651 0.00125 320
1 0.196614 0.210614 0.00157886 -0.0269954 0.00462095 0.162349 0.00125 321
1 0.105008 0.189569 0.00127242 0.00329692 -0.015418 0.0698784 0.00125 322
1 0.135012 0.305839 0.00192916 0.0207569 -0.000146952 -0.200151 0.00125 323
1 0.060842 0.156063 0.00172948 0.00201297 -0.0177975 0.156999 0.00125 324
1 0.229542 0.161135 0.00125129 0.0451305 0.000442969 -0.229427 0.00125 325
1 0.195536 0.29414 0.00147909 0.049389 -0.013813 0.133117 0.00125 326
1 0.139242 0.139465 0.00165375 -0.00503758 0.00247481 -0.194569 0.00125 327
1 0.0675049 0.0616502 0.00223633 -0.012807 0.0398371 -0.0518652 0.00125 328
1 0.20497 0.107142 0.00131784 -0.0106461 0.0543229 -0.22594 0.00125 329
1 0.0905619 0.138672 0.00129042 -0.00668386 -0.0235787 0.0502498 0.00125 330
1 0.31512 0.296992 0.00126549 -0.0571002 -0.00129773 0.154705 0.00125 331
1 0.314407 0.263338 0.00127634 0.0314073 0.0386572 0.188832 0.00125 332
1 0.269469 0.149654 0.00227963 -0.0133488 -0.00939231 -0.043578 0.00125 333
1 0.197539 0.271358 0.00167413 -0.0102995 -0.000450127 0.153985 0.00125 334
1 0.219667 0.0740717 0.00181057 -0.0121147 -0.0366058 -0.200016 0.00125 335
1 0.300218 0.0913934 0.00165654 -0.0105457 0.00867205 -0.195585 0.00125 336
1 0.00933812 0.0612716 0.00224397 0.0311208 0.033988 -0.0438057 0.00125 337
1 0.247264 0.312573 0.00125244 0.00335276 -0.10396 -0.233916 0.00125 338
1 0.268509 0.132619 0.00131677 0.0147242 7.88763e-05 -0.288729 0.00125 339
1 0.086147 0.213805 0.00123648 0.0162142 0.0200235 0.04717 0.00125 340
1 0.302291 0.159431 0.00144138 -0.00309405 0.0193283 -0.166744 0.00125 341
1 0.0501383 0.0576644 0.00205014 -0.01144 0.0244785 -0.173579 0.00125 342
1 0.06148 0.220665 0.00129135 -0.0453427 -0.0122551 -0.227173 0.00125 343
1 0.222136 0.300018 0.00132701 0.00217799 -0.0297913 0.205985 0.00125 344
1 0.126081 0.226011 0.00138794 0.0270608 -0.0304954 0.179847 0.00125 345
1 0.0255306 0.101573 0.00129196 0.0113449 0.0125812 0.183066 0.00125 346
1 0.259896 0.0833124 0.00179899 -0.0334046 0.00254343 -0.181121 0.00125 347
1 0.0249035 0.196749 0.0013476 -0.0310343 0.0122254 0.194065 0.00125 348
1 0.120638 0.0596225 0.00152001 0.0164652 0.0231748 0.103602 0.00125 349
1 0.166463 0.292122 0.00149549 0.0305249 0.0436896 0.153128 0.00125 350
1 0.288523 0.0951685 0.00153616 0.0188348 -0.0161609 0.104803 0.00125 351
1 0.0374891 0.0645502 0.00171521 0.0128539 -0.0079854 0.0752165 0.00125 352
1 0.222791 0.132231 0.00196294 -0.000591642 0.0159347 -0.176245 0.00125 353
1 0.0305998 0.21519 0.0020948 0.0219782 0.0210706 -0.203082 0.00125 354
1 0.121153 0.274525 0.00124999 -0.0111318 0.0214154 -0.000533364 0.00125 355
1 0.285793 0.0539775 0.00157164 -0.0858825 0.0248529 0.0631532 0.00125 356
1 0.133861 0.165149 0.00137662 -0.0031367 0.000582722 -0.221042 0.00125 357
1 0.303388 0.031527 0.00133985 -0.0540742 -0.0991714 0.167498 0.00125 358
1 0.123888 0.0166676 0.00144363 -0.0209128 0.00374868 0.147277 0.00125 359
1 0.0689826 0.153547 0.00123473 0.00583695 0.00297575 -0.186444 0.00125 360
1 0.17851 0.0346286 0.00158512 -0.00657259 0.0259752 -0.11508 0.00125 361
1 0.188614 0.0663222 0.00127165 -0.00799958 -0.0124378 -0.108951 0.00125 362
1 0.0562188 0.123254 0.00130346 0.0876542 0.0253426 -0.216694 0.00125 363
1 0.266384 0.0966593 0.00145675 -0.0187317 0.00873936 0.139458 0.00125 364
1 0.228691 0.0487796 0.00162051 0.00802779 0.00143969 -0.274823 0.00125 365
1 0.224625 0.0457636 0.00193168 0.0310868 0.0256259 -0.150617 0.00125 366
1 0.0722382 0.132777 0.00183872 0.020359 0.0109373 -0.235731 0.00125 367
1 0.0131894 0.210215 0.00138635 0.018654 0.0256513 0.222067 0.00125 368
1 0.0863894 0.149791 0.00137442 -0.0135502 -0.0138521 0.232937 0.00125 369
1 0.114486 0.305949 0.00128084 0.0408869 -0.00435308 0.266341 0.00125 370
1 0.152075 0.185788 0.00209673 0.00388167 0.0185705 -0.0265682 0.00125 371
1 0.299676 0.121808 0.00153511 -0.0144295 -0.00122316 -0.236033 0.00125 372
1 0.110595 0.0107091 0.00160888 -0.0291624 0.0471179 -0.070839 0.00125 373
1 0.077539 0.107872 0.00139118 0.0369806 -0.0719034 0.0703163 0.00125 374
1 0.258208 0.0752322 0.00199287 -0.04318 -0.0545328 -0.185384 0.00125 375
1 0.14488 0.238647 0.00148411 0.00636727 0.00215413 -0.24298 0.00125 376
1 0.219201 0.296419 0.00139653 0.0051583 0.0064324 0.135334 0.00125 377
1 0.235963 0.156629 0.00187585 0.0252164 -0.0308097 -0.208827 0.00125 378
1 0.246786 0.082609 0.00146169 0.0209822 0.00623422 -0.255144 0.00125 379
1 0.0651266 0.15849 0.00245322 0.00535216 -0.0326191 -0.0684447 0.00125 380
1 0.0467134 0.122712 0.00149399 -0.0211273 -0.0312053 0.169127 0.00125 381
1 0.306615 0.136998 0.00177837 0.0104512 0.00628451 -0.261808 0.00125 382
1 0.19195 0.0052525 0.00129283 -0.0189752 -0.00218563 0.177879 0.00125 383
1 0.0666461 0.0451186 0.00137431 -0.0046572 -0.011539 0.141901 0.00125 384
1 0.12917 0.00796255 0.00177348 -0.0211575 -0.0235961 -0.201479 0.00125 385
1 0.0576185 0.260369 0.00179101 0.00852453 0.00942269 -0.218723 0.00125 386
1 0.202682 0.133359 0.0019504 0.0282826 0.0451565 -0.0705478 0.00125 387
1 0.0418894 0.0183722 0.00146162 0.00269081 -0.0299445 -0.212479 0.00125 388
1 0.196986 0.0670889 0.00166209 0.0358736 -0.0287037 -0.173322 0.00125 389
1 0.0428241 0.145645 0.00166581 -0.0337154 0.0284549 -0.168809 0.00125 390
1 0.0780851 0.215735 0.00141181 0.0400503 -0.0067048 -0.247873 0.00125 391
1 0.0288017 0.119793 0.00130005 0.0165219 -0.0131373 0.252566 0.00125 392
1 0.198874 0.00127839 0.00123555 -0.0308616 0.00495436 0.249147 0.00125 393
1 0.0742482 0.178344 0.00151677 -0.00174107 0.00881666 -0.239676 0.00125 394
1 0.0869932 0.188513 0.0012605 0.0034457 -0.00698759 -0.248182 0.00125 395
1 0.0642689 0.0737816 0.00146587 0.0136041 0.0265053 -0.0756974 0.00125 396
1 0.0800198 0.278297 0.00185221 0.0171982 -0.0600388 -0.102101 0.00125 397
1 0.0125608 0.212661 0.00132489 -0.0588391 -0.025038 -0.00845421 0.00125 398
1 0.251559 0.128154 0.00144866 -0.0347595 -0.0203191 -0.217348 0.00125 399