ITEM: TIMESTEP
1000000
ITEM: NUMBER OF ATOMS
10000
ITEM: BOX BOUNDS pp pp ff
0.0000000000000000e+00 7.1853995375000002e-01
0.0000000000000000e+00 7.1853995375000002e-01
-1.2500000000000001e-02 1.2500000000000001e-02
ITEM: ATOMS type x y z vx vy vz radius id
1 0.465001 0.197798 0.00144834 1.30431e-05 0.00289084 0.229765 0.00125 1
1 0.261839 0.108719 0.00142131 0.00879836 0.00439668 0.125607 0.00125 2
1 0.020082 0.0227664 0.00163996 -0.000500839 -0.00277869 -0.0919666 0.00125 3
1 0.550893 0.249237 0.00133408 -0.0123999 0.0227272 -0.239117 0.00125 4
1 0.542652 0.152302 0.0015202 0.00511783 0.0049888 -0.246274 0.00125 5
1 0.638969 0.489454 0.00147184 0.0258463 -0.00708064 -0.258991 0.00125 6
1 0.560802 0.267749 0.00135747 0.00117459 -0.0100464 0.138824 0.00125 7
1 0.344709 0.527567 0.0014384 0.0227506 1.48751e-05 -0.238401 0.00125 8
1 0.319915 0.0835358 0.00241669 -0.015463 0.003961 -0.0394902 0.00125 9
1 0.449038 0.29482 0.00129906 0.0130049 -0.0118534 -0.228869 0.00125 10
1 0.664484 0.678217 0.0013275 0.0049667 0.0134954 -0.31067 0.00125 11
1 0.27336 0.234501 0.00180659 0.00496617 0.00540748 -0.215925 0.00125 12
1 0.220306 0.00699096 0.0015804 -0.00237041 -0.00424356 0.0544736 0.00125 13
1 0.0516504 0.137643 0.00136644 0.0110072 0.0100438 0.255103 0.00125 14
1 0.159573 0.530029 0.00153696 0.00577225 -0.00174479 0.136988 0.00125 15
1 0.0525597 0.25904 0.00141483 -0.0159807 -0.00746048 -0.271439 0.00125 16
1 0.482144 0.218763 0.001284 -0.006762 0.00298838 -0.232318 0.00125 17
1 0.69981 0.218332 0.00157785 0.00657042 0.00323803 -0.181016 0.00125 18
1 0.383323 0.395245 0.00160078 0.00389636 0.00942434 -0.23405 0.00125 19
1 0.51562 0.671096 0.00129674 -0.00850298 0.00399982 0.0215278 0.00125 20
1 0.524873 0.458339 0.00127965 0.0239289 0.00957486 -0.208235 0.00125 21
1 0.515046 0.154266 0.0012754 -0.0263985 0.00575 0.173091 0.00125 22
1 0.355178 0.26591 0.00128695 0.00046399 0.000993699 -0.102278 0.00125 23
1 0.53024 0.0948396 0.00166572 -0.00368833 0.012149 0.0939868 0.00125 24
1 0.0753113 0.347994 0.00166559 0.0074278 0.00569532 -0.278867 0.00125 25
1 0.0402242 0.500738 0.00154253 -0.00689144 0.00295415 -0.231992 0.00125 26
1 0.0186847 0.552906 0.00228641 0.0122236 0.0197209 -0.0513509 0.00125 27
1 0.0884263 0.496943 0.00159251 0.00258121 -0.00938552 -0.179416 0.00125 28
1 0.611787 0.270243 0.00174935 -0.0390583 0.000601518 -0.153731 0.00125 29
1 0.433332 0.197882 0.00128034 0.00141689 0.000109861 -0.247667 0.00125 30
1 0.325483 0.403453 0.00136165 -6.92271e-05 -0.000868919 -0.11257 0.00125 31
1 0.0632277 0.630256 0.00161675 0.0086966 0.00369774 -0.0898733 0.00125 32
1 0.467169 0.679114 0.0017643 -0.0114432 0.00908442 0.137953 0.00125 33
1 0.00855602 0.572224 0.00157297 -0.00935943 0.00308467 0.0973921 0.00125 34
1 0.266008 0.593637 0.00166391 -0.00114771 0.00963114 -0.230266 0.00125 35
1 0.654476 0.110245 0.00137855 -0.000215553 0.00299641 0.185604 0.00125 36
1 0.640856 0.580873 0.00238151 -0.0116779 0.0228165 0.0100356 0.00125 37
1 0.700557 0.524363 0.00199816 9.86585e-05 0.0040648 -0.226951 0.00125 38
1 0.0661345 0.342806 0.0013183 -0.00460833 -0.00366573 0.175863 0.00125 39
1 0.244448 0.503717 0.00125404 0.0123145 0.00572735 -0.246971 0.00125 40
1 0.0226129 0.256872 0.00246363 -0.00470989 -0.00789703 -0.0362481 0.00125 41
1 0.562849 0.504944 0.00135492 -0.0251032 0.0103364 0.163726 0.00125 42
1 0.217976 0.360368 0.00160573 0.00829055 0.00220596 -0.283117 0.00125 43
1 0.336938 0.0767885 0.002247 0.0034307 0.00218117 -0.141999 0.00125 44
1 0.714193 0.218056 0.00137079 -0.00709519 0.0124758 -0.29195 0.00125 45
1 0.157005 0.431234 0.00155587 0.00272725 0.0102542 -0.231535 0.00125 46
1 0.379946 0.619763 0.00166173 0.00849182 0.000758102 0.208248 0.00125 47
1 0.600237 0.484998 0.00134827 0.000874004 0.000738455 0.144099 0.00125 48
1 0.67532 0.174102 0.00144266 0.0112985 -0.0072262 0.210775 0.00125 49
1 0.13015 0.292295 0.00138131 0.0032597 -0.0064117 -0.273361 0.00125 50
1 0.405377 0.302582 0.00122427 -0.00516317 0.00449435 -0.0305019 0.00125 51
1 0.527136 0.459372 0.00155568 -0.0112554 0.0164472 -0.229367 0.00125 52
1 0.648535 0.162511 0.00143715 -0.00264854 -0.0092454 -0.266803 0.00125 53
1 0.386459 0.525926 0.00135577 0.00202693 -0.00107643 -0.238265 0.00125 54
1 0.600892 0.0218864 0.00154504 -0.012007 0.0122187 -0.103904 0.00125 55
1 0.375032 0.502215 0.00123052 -0.0069165 -0.00206881 0.0492485 0.00125 56
1 0.633261 0.618802 0.00133012 0.0150481 -0.00468496 -0.239234 0.00125 57
1 0.691798 0.285047 0.00171512 0.0050275 -0.0154775 0.101725 0.00125 58
1 0.356532 0.409721 0.00125913 0.00246161 -0.00580161 -0.24794 0.00125 59
1 0.446557 0.0158344 0.00124022 -0.0145485 0.00220721 -0.203349 0.00125 60
1 0.266235 0.598786 0.00131729 0.0094118 -0.00520916 0.194769 0.00125 61
1 0.0881807 0.583458 0.0013538 -0.00688082 -0.00754598 -0.222686 0.00125 62
1 0.608031 0.0228391 0.00219818 0.00407237 -0.00913916 -0.0469661 0.00125 63
1 0.467744 0.590117 0.00128429 -0.00407992 -0.00043812 0.185928 0.00125 64
1 0.475204 0.706346 0.00131963 -0.00601498 -0.0102543 -0.234925 0.00125 65
1 0.0882307 0.261096 0.0016428 0.00198633 -0.00344616 0.0526584 0.00125 66
1 0.12388 0.41528 0.00140349 -0.00467918 0.00293508 -0.0956233 0.00125 67
1 0.0365245 0.620364 0.00138807 0.0130082 -0.002341 0.153303 0.00125 68
1 0.523502 0.29233 0.0021517 0.00926727 -0.00297166 -0.0559245 0.00125 69
1 0.274519 0.617132 0.00162935 -0.0204604 -0.0121695 0.0931742 0.00125 70
1 0.462304 0.168587 0.00155659 0.00430457 -0.0165577 0.053567 0.00125 71
1 0.590859 0.36254 0.00168567 -0.0315225 -0.0101073 0.170894 0.00125 72
1 0.471227 0.657251 0.00123154 0.00656833 0.00415448 0.0830425 0.00125 73
1 0.623796 0.40689 0.00177514 0.013359 0.00297083 -0.219446 0.00125 74
1 0.132755 0.50586 0.00178808 0.0135508 0.000793841 -0.152456 0.00125 75
1 0.681112 0.468191 0.00128016 0.000597808 0.00182895 0.188323 0.00125 76
1 0.0981203 0.0281286 0.00166003 0.0108012 -0.0044053 -0.22615 0.00125 77
1 0.477313 0.343306 0.00132741 0.00374034 0.00991268 -0.235444 0.00125 78
1 0.300936 0.660981 0.00180247 -0.00453022 0.0157747 -0.0356888 0.00125 79
1 0.395039 0.627489 0.00127954 0.00321103 -0.00245658 -0.239161 0.00125 80
1 0.676984 0.436508 0.00230673 -0.00166364 0.00896806 -0.0469139 0.00125 81
1 0.0935907 0.364686 0.00123076 -0.0549992 -0.0408033 0.0985414 0.00125 82
1 0.464156 0.105894 0.00213324 0.00328365 -0.00559651 -0.17689 0.00125 83
1 0.198331 0.488803 0.00150228 -0.0065486 -2.54352e-05 0.210047 0.00125 84
1 0.0186253 0.642205 0.00175815 0.00108547 0.00702574 0.127655 0.00125 85
1 0.0334892 0.461553 0.0014754 0.000584615 -0.0179472 0.24804 0.00125 86
1 0.558734 0.389188 0.00177851 0.0044582 0.00129389 -0.0453437 0.00125 87
1 0.68389 0.503842 0.00179917 0.00468332 -0.00779401 -0.149961 0.00125 88
1 0.117909 0.0959421 0.00145278 -0.0168694 -0.00712736 0.2218 0.00125 89
1 0.524574 0.71036 0.00208995 0.00306717 -0.00533008 -0.205473 0.00125 90
1 0.640196 0.34774 0.00236407 0.0115622 -0.00477345 -0.0430412 0.00125 91
1 0.41426 0.458658 0.0015228 0.00169181 0.00406476 -0.187757 0.00125 92
1 0.645535 0.633021 0.00129761 0.00136677 0.000605341 0.185723 0.00125 93
1 0.656384 0.432969 0.00122706 -0.00694782 -0.0087662 -0.108055 0.00125 94
1 0.00945861 0.238917 0.00180631 -0.00924146 -0.0118178 -0.258061 0.00125 95
1 0.471354 0.2021 0.00157068 0.000861773 -0.00187389 -0.234276 0.00125 96
1 0.0379928 0.401032 0.0014575 0.0221857 -0.00705679 0.105505 0.00125 97
1 0.220594 0.302511 0.00168644 -0.000444149 -0.00608484 -0.0519046 0.00125 98
1 0.082098 0.326618 0.00127385 0.00568248 0.000307491 0.208795 0.00125 99
1 0.39619 0.450343 0.00125823 0.000305133 -0.000534972 -0.224087 0.00125 100
1 0.510792 0.51787 0.00143162 -0.008824 0.00372584 0.167733 0.00125 101
1 0.0866147 0.567372 0.00171265 0.00502168 -0.00338795 -0.198031 0.00125 102
1 0.31237 0.526665 0.00148205 0.0049046 -0.00239307 -0.232495 0.00125 103
1 0.669404 0.511108 0.0021057 0.00692298 -0.00541358 0.00759563 0.00125 104
1 0.233255 0.114796 0.00136241 0.00825033 -0.00989663 -0.228037 0.00125 105
1 0.294444 0.533474 0.00179588 0.00239342 0.00131928 -0.0787429 0.00125 106
1 0.237131 0.112794 0.00134073 0.00150927 0.000860606 0.153325 0.00125 107
1 0.167422 0.49109 0.00246884 0.00327711 -0.0018127 -0.0460678 0.00125 108
1 0.0827365 0.580796 0.00151233 -0.00146638 0.0373012 -0.224623 0.00125 109
1 0.118971 0.131263 0.00131618 0.00385637 0.000526648 -0.2346 0.00125 110
1 0.116092 0.12029 0.00183355 -2.35146e-05 0.00129423 -0.251855 0.00125 111
1 0.338634 0.355557 0.00155481 0.00726868 -0.00458491 -0.236655 0.00125 112
1 0.365881 0.180013 0.00127321 -0.000220756 -0.000593714 -0.202242 0.00125 113
1 0.651766 0.156868 0.00183325 0.00619324 -0.00940305 -0.0753913 0.00125 114
1 0.684988 0.680317 0.0014933 -0.0125364 -0.00320643 0.116841 0.00125 115
1 0.582214 0.311645 0.00145436 0.0124261 0.00516725 -0.239573 0.00125 116
1 0.04742 0.139438 0.00133045 0.00204477 0.000283389 -0.226307 0.00125 117
1 0.330122 0.0810659 0.0023535 -0.00274662 -0.00701805 -0.0482109 0.00125 118
1 0.629115 0.455268 0.0017857 -0.00987145 0.0110264 -0.171496 0.00125 119
1 0.105304 0.335682 0.00171685 -0.00856392 0.00633157 -0.0609634 0.00125 120
1 0.0128863 0.536709 0.00166416 0.00672238 0.00623733 -0.0915004 0.00125 121
1 0.0592271 0.0116326 0.00140875 -0.00736477 0.0151921 0.149203 0.00125 122
1 0.35322 0.374934 0.00127959 -0.00813082 -0.00363348 -0.231614 0.00125 123
1 0.613813 0.266019 0.00161163 -0.00617814 -0.00435706 -0.22744 0.00125 124
1 0.399181 0.625638 0.00141426 -0.00596234 -0.00520849 0.219556 0.00125 125
1 0.272443 0.00913349 0.00247163 -0.00737399 0.00711093 -0.0588296 0.00125 126
1 0.697429 0.488699 0.00141256 -0.00135731 0.000125068 0.146028 0.00125 127
1 0.106661 0.14552 0.00206965 -0.00433983 -0.00125527 -0.0607453 0.00125 128
1 0.0784785 0.673154 0.00140503 0.00608067 -0.00248239 -0.236625 0.00125 129
1 0.555731 0.348326 0.00123071 0.00686283 0.011145 0.0474647 0.00125 130
1 0.373702 0.0570784 0.00134856 -0.00115913 0.0035918 -0.237327 0.00125 131
1 0.219997 0.143262 0.00143507 0.0037554 -0.0150149 0.139537 0.00125 132
1 0.622663 0.0518085 0.00132297 -0.00128148 -0.0050083 -0.302996 0.00125 133
1 0.0239994 0.507923 0.0012964 4.25819e-05 0.00016696 -0.233015 0.00125 134
1 0.460005 0.481078 0.00138369 0.00209572 0.00450865 0.181105 0.00125 135
1 0.584064 0.354673 0.00152204 0.000675999 0.00506005 -0.236697 0.00125 136
1 0.150244 0.035306 0.00126544 0.00482712 0.00327805 0.209686 0.00125 137
1 0.566784 0.109443 0.00170929 0.00394661 -0.0110176 -0.193568 0.00125 138
1 0.294695 0.655082 0.00168622 -0.0125263 0.00439997 -0.0864224 0.00125 139
1 0.158966 0.0704958 0.00133616 0.00814209 -0.00120015 0.153402 0.00125 140
1 0.12959 0.0686501 0.00137076 -0.0015189 0.00271324 -0.201942 0.00125 141
1 0.463416 0.436446 0.00143969 0.0160333 0.00758261 0.135015 0.00125 142
1 0.176858 0.31311 0.00126809 0.00818532 0.00108279 0.179132 0.00125 143
1 0.190307 0.0281138 0.00124651 -0.000379395 -0.0033111 -0.244301 0.00125 144
1 0.42572 0.192196 0.00129287 -0.00758397 0.0046759 0.234016 0.00125 145
1 0.508708 0.596682 0.00165807 -0.0012868 0.00260287 -0.0892175 0.00125 146
1 0.441609 0.145 0.00139582 0.00895297 -0.00378493 -0.235477 0.00125 147
1 0.167722 0.481626 0.00149375 -0.0170857 -0.00764279 -0.238532 0.00125 148
1 0.0362114 0.625783 0.00157846 0.00753217 0.00178055 0.096482 0.00125 149
1 0.438349 0.000255169 0.00149676 0.000664782 0.00548027 0.073643 0.00125 150
1 0.292634 0.207558 0.00224351 -0.0189339 -0.0130938 -0.0476352 0.00125 151
1 0.0643834 0.205931 0.00141469 0.0238076 -0.000684042 -0.231028 0.00125 152
1 0.0455265 0.193327 0.00132324 0.00658775 0.0136398 0.171785 0.00125 153
1 0.229019 0.469443 0.00205003 -0.0047997 0.00959751 -0.0495473 0.00125 154
1 0.00665028 0.312461 0.00125854 0.0308778 -0.00742353 -0.307627 0.00125 155
1 0.504153 0.701326 0.00156531 -0.0211978 -0.00687977 -0.174735 0.00125 156
1 0.260287 0.186444 0.00131442 -0.00145582 0.0169819 -0.241183 0.00125 157
1 0.510323 0.689314 0.00141195 0.0109327 0.00219692 -0.238189 0.00125 158
1 0.554999 0.601504 0.00133149 -0.00220179 0.00345487 0.262203 0.00125 159
1 0.41592 0.0316313 0.00154733 -0.00248717 0.0106805 -0.232353 0.00125 160
1 0.105622 0.562153 0.00141037 -0.0151021 -0.0187491 -0.309262 0.00125 161
1 0.261376 0.371481 0.00238467 -0.000486091 -0.00427751 -0.0592365 0.00125 162
1 0.524807 0.408689 0.00152002 0.0027249 0.0116264 -0.232038 0.00125 163
1 0.199437 0.522536 0.00151447 0.00541037 0.00269758 0.110015 0.00125 164
1 0.470346 0.283016 0.00223065 0.0471867 -0.00919581 -0.0491996 0.00125 165
1 0.221933 0.512098 0.0012331 -0.000105033 0.000289492 -0.127559 0.00125 166
1 0.0291532 0.521204 0.00135374 -0.00911764 -0.00902124 0.165575 0.00125 167
1 0.334214 0.629907 0.00127225 0.00466101 0.0100292 0.0827904 0.00125 168
1 0.0823322 0.108602 0.00145675 0.000431813 0.0070427 0.133717 0.00125 169
1 0.666928 0.00272553 0.00130479 -0.00246906 -0.00616518 0.179851 0.00125 170
1 0.153085 0.265706 0.00132109 0.00537165 -0.00108958 -0.235031 0.00125 171
1 0.324849 0.37629 0.00191676 0.00790641 0.00338667 -0.0795059 0.00125 172
1 0.700577 0.246595 0.0012705 0.00901405 0.00751108 0.273456 0.00125 173
1 0.393454 0.673885 0.00140964 -0.00580798 -0.00182112 -0.230207 0.00125 174
1 0.568344 0.666754 0.00183702 -0.0107348 -0.00295943 -0.227614 0.00125 175
1 0.0451784 0.0254256 0.00185037 0.0090516 0.00724617 -0.14708 0.00125 176
1 0.450471 0.0848991 0.0012837 0.0221157 0.00153267 0.21281 0.00125 177
1 0.0760705 0.49325 0.00135017 0.00373066 0.0208803 -0.237442 0.00125 178
1 0.679326 0.634633 0.00124156 -0.00398038 0.00914971 -0.0854236 0.00125 179
1 0.569245 0.504726 0.00132051 -0.00268449 -0.00394547 0.194379 0.00125 180
1 0.609194 0.660935 0.00129434 -0.0058912 -0.00363127 0.249393 0.00125 181
1 0.425538 0.316671 0.00133517 0.00272182 0.00911025 0.136877 0.00125 182
1 0.0261313 0.711298 0.00228272 0.0265286 0.00933233 -0.0473914 0.00125 183
1 0.354525 0.482648 0.00126541 0.0207783 0.00576143 -0.242835 0.00125 184
1 0.184107 0.301633 0.00171145 -0.0121549 -0.00320937 0.182217 0.00125 185
1 0.509812 0.661277 0.00170166 0.0115944 -0.00981956 -0.246162 0.00125 186
1 0.270655 0.143284 0.00242992 0.00917883 0.00957192 -0.110351 0.00125 187
1 0.554887 0.110613 0.00129308 -0.00172901 0.00282365 0.209453 0.00125 188
1 0.528053 0.204128 0.00150082 -0.00249689 0.0116019 0.0691501 0.00125 189
1 0.582211 0.0748993 0.00137038 -0.00568034 -0.0136221 -0.236014 0.00125 190
1 0.375623 0.0541689 0.00135119 0.00630246 -0.00166118 0.185985 0.00125 191
1 0.475675 0.666115 0.00148867 -0.0155814 0.0075996 -0.237733 0.00125 192
1 0.652263 0.588176 0.00176048 0.0173693 -0.0148976 -0.0935847 0.00125 193
1 0.125174 0.275512 0.00137092 -0.00634302 -0.00220767 -0.20261 0.00125 194
1 0.243669 0.543113 0.00127515 -0.0050008 -0.019298 0.188806 0.00125 195
1 0.0275319 0.586742 0.00213762 -0.0103391 0.0038087 -0.0544398 0.00125 196
1 0.684339 0.0693272 0.00176024 -0.000807017 0.00826505 -0.224837 0.00125 197
1 0.0913494 0.0301239 0.00134756 0.00273476 0.00180937 -0.236902 0.00125 198
1 0.365608 0.660519 0.00126967 -0.00802466 -0.00226281 -0.0953959 0.00125 199
1 0.580958 0.63647 0.00159385 0.00762465 -0.000647631 -0.179056 0.00125 200
1 0.0741433 0.106924 0.00131987 -0.00359255 -0.00797746 0.275176 0.00125 201
1 0.665563 0.331654 0.00153755 0.000921959 -0.0112909 0.0569614 0.00125 202
1 0.455179 0.0137991 0.00151863 -0.000736383 0.00225804 0.238957 0.00125 203
1 0.493048 0.453332 0.00187603 -0.00408245 0.000715816 -0.207614 0.00125 204
1 0.068488 0.390988 0.00185446 -0.00698692 0.0101083 -0.210498 0.00125 205
1 0.599927 0.226908 0.00182484 -0.00656504 0.00591896 -0.258686 0.00125 206
1 0.474507 0.421144 0.0019168 0.0157938 -0.0101625 -0.0862721 0.00125 207
1 0.329309 0.309505 0.0013661 0.00294476 0.0029461 -0.224737 0.00125 208
1 0.358751 0.424653 0.0013757 0.0071951 0.00333604 0.186302 0.00125 209
1 0.0727432 0.653659 0.00159247 0.00252136 -0.00242804 -0.238619 0.00125 210
1 0.173017 0.692012 0.00152839 9.30805e-05 0.0151632 0.0608948 0.00125 211
1 0.265508 0.0245445 0.00128503 -0.00181826 -0.00885719 -0.23711 0.00125 212
1 0.611078 0.19936 0.00137177 0.0116745 -0.00704398 -0.198425 0.00125 213
1 0.515432 0.579448 0.00187347 -0.0104494 -0.00245022 -0.247796 0.00125 214
1 0.417118 0.15357 0.00139807 0.00798815 -0.00983985 -0.229682 0.00125 215
1 0.047416 0.489049 0.0023653 -0.00309994 0.000936278 -0.041831 0.00125 216
1 0.225022 0.3278 0.0013067 0.00295338 0.00230075 -0.231803 0.00125 217
1 0.411158 0.60087 0.00242642 -0.00295505 0.000688476 -0.00256577 0.00125 218
1 0.152258 0.115797 0.00140403 0.0101611 -0.00417123 0.221322 0.00125 219
1 0.00895754 0.114589 0.00148217 -0.00767314 0.0156115 0.0910061 0.00125 220
1 0.0952998 0.0373728 0.00152615 -0.00809281 0.00416495 -0.176935 0.00125 221
1 0.462858 0.472689 0.00138722 0.00631329 0.0190001 -0.238807 0.00125 222
1 0.639492 0.336048 0.00135903 -0.00481943 0.00490709 -0.236788 0.00125 223
1 0.194887 0.439037 0.00226055 -0.00346812 0.000573344 -0.049727 0.00125 224
1 0.150318 0.152615 0.00127821 0.0119444 0.00400198 -0.232977 0.00125 225
1 0.565538 0.408717 0.002142 -0.000105979 0.0150272 -0.0507233 0.00125 226
1 0.280625 0.105258 0.00150255 0.00865009 0.00100608 -0.245074 0.00125 227
1 0.693151 0.111845 0.00129787 0.0122447 -0.00100266 0.234577 0.00125 228
1 0.100687 0.387372 0.00191775 0.00672588 -0.00197319 -0.0797336 0.00125 229
1 0.355655 0.431352 0.00168104 -0.00292918 -0.0156505 -0.0876374 0.00125 230
1 0.226551 0.668131 0.00142212 -0.00847276 -0.0124811 0.142017 0.00125 231
1 0.325661 0.462794 0.00224882 0.00281463 0.00407855 -0.0442215 0.00125 232
1 0.0530603 0.00932028 0.00216944 -0.00153641 -0.00048317 -0.0177623 0.00125 233
1 0.0939306 0.215892 0.00165878 -0.000987955 -0.00816632 -0.225115 0.00125 234
1 0.531064 0.2671 0.00136392 0.000655422 -0.0163814 -0.186229 0.00125 235
1 0.312106 0.453315 0.00141443 0.00256828 -0.00974975 -0.199297 0.00125 236
1 0.568892 0.437472 0.00124397 0.0191498 0.0207149 0.275801 0.00125 237
1 0.567038 0.246122 0.00127265 0.0042828 -0.00478774 -0.228773 0.00125 238
1 0.454744 0.575233 0.00178612 -0.00684625 -0.00866567 -0.0894553 0.00125 239
1 0.592878 0.0546022 0.00244229 -0.00967911 -0.00627338 -0.037408 0.00125 240
1 0.621354 0.26776 0.00243348 0.00169576 0.00804346 -0.0387092 0.00125 241
1 0.350829 0.67887 0.00137861 0.00460904 0.00342385 0.181758 0.00125 242
1 0.422946 0.0673936 0.0014419 -0.00318974 -0.0191689 0.165559 0.00125 243
1 0.256391 0.278659 0.00142259 -0.0144734 -0.00664012 0.226913 0.00125 244
1 0.212476 0.184466 0.00131155 0.00433258 -0.0345201 -0.288566 0.00125 245
1 0.308847 0.524836 0.0015707 0.0153672 0.0103875 -0.1849 0.00125 246
1 0.340081 0.499474 0.00153076 0.00545189 -0.00386563 -0.178534 0.00125 247
1 0.0853476 0.449392 0.00132832 -0.007732 0.0094103 -0.237118 0.00125 248
1 0.205836 0.0487574 0.0014523 -0.00179802 0.0199893 -0.300096 0.00125 249
1 0.462251 0.569791 0.00136246 0.00260897 0.00477948 0.182433 0.00125 250
1 0.468235 0.605849 0.00215945 0.00360143 -0.00652563 -0.0707627 0.00125 251
1 0.260994 0.600231 0.00147983 -0.0135245 0.00474901 -0.197247 0.00125 252
1 0.679197 0.555451 0.00135632 -0.00471708 0.0110621 -0.227266 0.00125 253
1 0.129694 0.528016 0.00139874 -0.00241431 -0.0122037 -0.225044 0.00125 254
1 0.664356 0.495181 0.00126879 0.00961773 -0.000359568 0.194688 0.00125 255
1 0.247545 0.138233 0.00127305 -0.000846413 0.000360975 -0.22353 0.00125 256
1 0.366988 0.120189 0.00127415 -0.0164771 -0.00634319 -0.231744 0.00125 257
1 0.435439 0.555909 0.00249583 -0.00598885 0.00114973 0.0373857 0.00125 258
1 0.156575 0.178369 0.00127991 -0.0148802 0.00258094 -0.232299 0.00125 259
1 0.53589 0.547361 0.00138496 -0.0183069 -0.0038242 0.154059 0.00125 260
1 0.133991 0.458423 0.00174398 -0.00514162 -0.00294883 -0.0897326 0.00125 261
1 0.585654 0.0966944 0.00184565 -0.0181966 0.0154698 -0.0848572 0.00125 262
1 0.448997 0.258342 0.00125431 -0.00184796 -0.00303233 -0.193846 0.00125 263
1 0.378734 0.0216076 0.00164589 -0.00424067 0.00365403 0.0932562 0.00125 264
1 0.70223 0.710915 0.0016042 -7.30938e-05 0.00702983 -0.184727 0.00125 265
1 0.412454 0.476344 0.00145287 -0.00369089 -0.00818467 -0.239699 0.00125 266
1 0.370652 0.691181 0.00134431 -0.0020504 -0.0082857 -0.240011 0.00125 267
1 0.186312 0.656212 0.00144294 -0.00433805 0.00386577 -0.197684 0.00125 268
1 0.475331 0.247399 0.00231895 0.0064906 0.00297329 -0.0458838 0.00125 269
1 0.296391 0.502478 0.00150967 -0.00239991 -0.00543212 -0.192876 0.00125 270
1 0.570039 0.670798 0.00148808 -0.00204544 0.00240625 0.119831 0.00125 271
1 0.112382 0.465247 0.00239675 -0.00835783 -0.000699323 -0.0381233 0.00125 272
1 0.664119 0.416702 0.00134005 -0.0104336 0.00713429 -0.236968 0.00125 273
1 0.100244 0.0443018 0.00174587 -0.00561129 0.000143919 -0.046621 0.00125 274
1 0.251498 0.0947904 0.00125664 -0.00479152 0.000136132 -0.230424 0.00125 275
1 0.120713 0.452796 0.00132702 0.000983021 -9.98035e-05 -0.233672 0.00125 276
1 0.643489 0.349802 0.00174046 -0.0116299 0.00363689 -0.197243 0.00125 277
1 0.263768 0.11748 0.00171284 -0.000585495 -0.00413501 0.101866 0.00125 278
1 0.247524 0.277463 0.00136367 -5.75897e-05 -0.0114832 -0.238469 0.00125 279
1 0.516727 0.250539 0.00126123 -0.00196661 0.00368402 -0.230389 0.00125 280
1 0.708065 0.389214 0.00215873 0.0106076 0.0107558 -0.0497154 0.00125 281
1 0.00194177 0.495781 0.0012761 -0.0168259 -0.00194287 0.20728 0.00125 282
1 0.341745 0.466427 0.00156143 -0.000768407 0.000340186 0.101603 0.00125 283
1 0.600974 0.124544 0.00147356 -0.0144626 -0.0196512 0.127697 0.00125 284
1 0.712126 0.0155649 0.00148826 -0.0035139 -0.00437908 -0.176418 0.00125 285
1 0.279098 0.413022 0.00159073 -0.00860665 -0.00428694 0.0974333 0.00125 286
1 0.10325 0.428042 0.00163105 -0.0149554 -0.0021777 -0.0901477 0.00125 287
1 0.618553 0.345715 0.00133051 0.00384844 0.0192963 -0.105286 0.00125 288
1 0.0816687 0.467638 0.00129231 -0.00588576 0.00387504 -0.232756 0.00125 289
1 0.0380079 0.0637741 0.00127608 -0.0075517 -0.00611948 -0.231925 0.00125 290
1 0.536984 0.533778 0.00125128 0.0070804 -0.00817906 0.204079 0.00125 291
1 0.433983 0.592211 0.00124057 -0.000848096 -0.0130233 0.190012 0.00125 292
1 0.212796 0.688752 0.00126962 -0.00534399 0.00121983 -0.253879 0.00125 293
1 0.626071 0.637288 0.00134985 0.00049223 -0.00398466 0.227465 0.00125 294
1 0.331562 0.533232 0.00166618 0.00391618 -0.000527203 -0.094642 0.00125 295
1 0.238556 0.155196 0.00131413 -0.0028769 0.0176809 0.0948119 0.00125 296
1 0.230515 0.587071 0.00148952 0.00822949 -0.00766501 0.119033 0.00125 297
1 0.121456 0.529246 0.00148449 -0.0120812 -0.00068861 -0.239831 0.00125 298
1 0.0796548 0.40686 0.00125428 0.0100512 0.00053916 -0.230118 0.00125 299
1 0.166763 0.224995 0.00139745 -0.00409453 -0.000878311 0.217393 0.00125 300
1 0.665121 0.7041 0.00139625 0.00282689 -0.0137838 -0.192027 0.00125 301
1 0.264856 0.492555 0.00128565 -0.00816394 0.00358612 -0.304479 0.00125 302
1 0.507835 0.316263 0.00124582 0.0110915 -0.00388949 -0.226425 0.00125 303
1 0.652318 0.565517 0.00134531 0.0194448 -0.000718085 -0.239898 0.00125 304
1 0.304248 0.433193 0.00164696 0.00271895 0.00145528 -0.230993 0.00125 305
1 0.497343 0.0850114 0.00153348 -0.0105911 -0.0114942 0.13146 0.00125 306
1 0.293055 0.460674 0.00162354 -0.00895163 0.00316277 -0.0904392 0.00125 307
1 0.00120359 0.136065 0.00123361 -0.00188466 0.000115775 -0.138273 0.00125 308
1 0.658761 0.489851 0.00133932 0.0107095 0.0173723 0.190493 0.00125 309
1 0.488881 0.376654 0.00129608 -0.0109663 0.0150997 -0.237782 0.00125 310
1 0.115081 0.157556 0.00203311 -0.00237849 -0.0037879 -0.197024 0.00125 311
1 0.692525 0.0281712 0.00242618 -0.00610898 0.00355197 -0.0392988 0.00125 312
1 0.031195 0.115812 0.00178933 0.000988443 0.011873 0.0924335 0.00125 313
1 0.517019 0.319057 0.00199447 0.000191658 -0.000552086 -0.0628844 0.00125 314
1 0.0960334 0.150531 0.00165612 -0.0107029 0.0057756 -0.0918944 0.00125 315
1 0.558853 0.0438079 0.00186851 0.00406262 -0.0140504 -0.0738515 0.00125 316
1 0.070395 0.00564241 0.0015539 0.00261249 -0.00976411 0.10059 0.00125 317
1 0.270277 0.367074 0.00123354 0.00409095 0.00180611 0.132392 0.00125 318
1 0.0135684 0.255578 0.00199515 -0.0100759 0.00325756 -0.227457 0.00125 319
1 0.168154 0.347467 0.00206477 -0.0703081 0.0124509 -0.100736 0.00125 320
1 0.397791 0.106928 0.0014759 0.00774168 -0.0164841 -0.195713 0.00125 321
1 0.532786 0.029355 0.00251527 -0.00520906 -0.00895173 -0.0529809 0.00125 322
1 0.196341 0.364622 0.00163732 -0.00122122 0.00157438 -0.0895607 0.00125 323
1 0.162142 0.448183 0.00135905 0.00489151 -0.00530173 0.163477 0.00125 324
1 0.716061 0.282115 0.00153514 0.0231273 0.00407003 -0.239378 0.00125 325
1 0.307747 0.106249 0.00133754 -0.00595473 0.00503671 -0.240277 0.00125 326
1 0.376985 0.644971 0.00136909 0.00402694 -0.00211365 -0.151054 0.00125 327
1 0.117563 0.680768 0.00124567 -0.00802226 -0.0199996 0.193474 0.00125 328
1 0.51912 0.629613 0.00134732 0.00952819 -0.014406 -0.221038 0.00125 329
1 0.513827 0.0610376 0.00177434 -0.00163839 -0.00179144 -0.26544 0.00125 330
1 0.432902 0.163322 0.00152116 -0.00973323 -0.00862908 0.128595 0.00125 331
1 0.542726 0.127556 0.00135445 -0.000109608 0.00318895 0.247466 0.00125 332
1 0.437937 0.349849 0.00133938 -0.00893251 2.63318e-06 0.192145 0.00125 333
1 0.361601 0.269713 0.00127656 0.00704005 0.0223443 -0.251836 0.00125 334
1 0.390307 0.576723 0.0013211 -0.0225467 -0.00454018 -0.235393 0.00125 335
1 0.345794 0.692308 0.00144106 -0.00887798 0.0115062 0.233047 0.00125 336
1 0.199794 0.117035 0.00147986 0.0360995 -0.00282096 0.0669076 0.00125 337
1 0.112787 0.289734 0.00181497 -0.00267391 0.00289236 -0.199851 0.00125 338
1 0.694003 0.305714 0.00135183 -0.00539355 -0.0121587 0.161156 0.00125 339
1 0.572042 0.0957081 0.00213882 -0.00497687 0.00199057 0.0102287 0.00125 340
1 0.367438 0.0355435 0.00124543 -0.0108235 -3.95335e-07 0.00170592 0.00125 341
1 0.246528 0.20383 0.00137302 0.00583072 -0.00388558 -0.235938 0.00125 342
1 0.580756 0.267623 0.00136812 -0.00855815 -0.0129864 -0.202976 0.00125 343
1 0.58651 0.0486736 0.00130639 0.00945824 0.00348038 -0.235076 0.00125 344
1 0.428156 0.170212 0.00180264 0.00879539 0.0149077 -0.2283 0.00125 345
1 0.688521 0.391743 0.00129233 0.00600172 0.00567821 -0.223791 0.00125 346
1 0.236303 0.143958 0.00175747 0.00559075 0.0193665 0.125864 0.00125 347
1 0.677813 0.0650011 0.0012302 -0.0199975 0.00943918 0.00555819 0.00125 348
1 0.709059 0.429587 0.00129254 0.00110031 -0.000116818 0.273784 0.00125 349
1 0.664669 0.31882 0.00125432 -0.00463453 -0.00085207 -0.237931 0.00125 350
1 0.262803 0.256904 0.00143372 -0.00452356 0.00599111 0.0949999 0.00125 351
1 0.440418 0.486126 0.00196352 0.00563987 9.35149e-05 -0.233611 0.00125 352
1 0.381819 0.351622 0.00240044 0.003435 -0.00378414 -0.0399498 0.00125 353
1 0.394213 0.58336 0.00205183 -0.00582638 0.00874843 -0.184633 0.00125 354
1 0.337368 0.101892 0.00125451 -0.00798715 -0.0170315 0.219658 0.00125 355
1 0.532739 0.590443 0.00215681 0.0184224 0.00688358 -0.194746 0.00125 356
1 0.112735 0.705172 0.00190686 0.00528644 -0.00857099 -0.203766 0.00125 357
1 0.165895 0.553343 0.00165187 0.00624251 0.00287951 -0.230608 0.00125 358
1 0.500062 0.0414208 0.00180863 -0.00162689 0.0107516 0.124839 0.00125 359
1 0.178423 0.573 0.00173063 0.00610406 0.0339165 -0.0574238 0.00125 360
1 0.354402 0.192637 0.00156374 0.00373866 0.00383704 -0.230494 0.00125 361
1 0.285992 0.156394 0.0015688 -0.00470347 0.00969081 0.230941 0.00125 362
1 0.0487135 0.244899 0.00154545 0.00145044 -0.000732906 0.10468 0.00125 363
1 0.581092 0.216039 0.00177988 -0.0053384 -0.00292971 -0.0876852 0.00125 364
1 0.158593 0.354404 0.00123962 0.00287481 -0.012196 0.0241839 0.00125 365
1 0.0690396 0.627699 0.00141065 0.00695135 -0.00346115 0.145432 0.00125 366
1 0.492576 0.233409 0.0013096 0.00387429 0.00018513 0.197256 0.00125 367
1 0.71751 0.0972107 0.00143761 -0.00218848 -0.00120913 -0.0701806 0.00125 368
1 0.303018 0.46964 0.00230268 -0.0190526 0.0054564 -0.121627 0.00125 369
1 0.0403237 0.561973 0.00125611 0.00664157 0.00328388 -0.231716 0.00125 370
1 0.0822886 0.146676 0.00176585 -0.00283448 -0.011885 0.125726 0.00125 371
1 0.0921165 0.613934 0.00151744 0.00304955 0.00704235 -0.287205 0.00125 372
1 0.205841 0.0597016 0.00159112 0.00496425 0.0118479 0.0947878 0.00125 373
1 0.549505 0.109015 0.00170495 -0.0301941 -0.0104168 0.165941 0.00125 374
1 0.638405 0.363497 0.00123864 0.00328276 0.00340101 -0.194411 0.00125 375
1 0.243694 0.53393 0.00182592 -0.00562512 0.0025526 -0.0767999 0.00125 376
1 0.137593 0.103815 0.0018104 -0.00122095 0.000538674 -0.164805 0.00125 377
1 0.406906 0.403422 0.00125725 0.00245029 0.00482071 0.190116 0.00125 378
1 0.374986 0.262676 0.00199822 -0.0018434 0.000719861 -0.0819735 0.00125 379
1 0.17784 0.0728156 0.00153595 -0.00247674 -0.00858389 -0.236173 0.00125 380
1 0.712337 0.629389 0.00137068 0.00209603 -0.00208467 0.223807 0.00125 381
1 0.0910734 0.200231 0.00149648 0.0178766 0.00355629 -0.23752 0.00125 382
1 0.0405227 0.135345 0.00147528 7.57226e-05 -0.00323789 0.0807991 0.00125 383
1 0.468855 0.419923 0.00136567 -0.00410572 -0.005504 -0.238298 0.00125 384
1 0.125866 0.709318 0.00149614 0.00634673 -0.000461058 -0.266217 0.00125 385
1 0.349688 0.0435714 0.00143502 -0.00276337 -0.000481274 -0.179816 0.00125 386
1 0.133984 0.269661 0.00168635 -0.000729871 0.00407715 -0.0576498 0.00125 387
1 0.133973 0.540352 0.00139196 -0.0102946 -0.00982764 0.179619 0.00125 388
1 0.552723 0.334696 0.0015825 -0.00224413 -0.0040323 0.0998423 0.00125 389
1 0.21315 0.132507 0.00216364 -0.00382638 -0.00688746 -0.0557047 0.00125 390
1 0.703972 0.220639 0.00137451 0.00224953 0.0101583 0.133725 0.00125 391
1 0.0705555 0.648129 0.00231967 -0.00380147 0.00704364 -0.0399277 0.00125 392
1 0.108062 0.276177 0.0013465 0.0046057 0.00184076 -0.237759 0.00125 393
1 0.286251 0.351188 0.00243118 -0.00297689 -0.00300282 -0.0471031 0.00125 394
1 0.579698 0.306939 0.00125656 0.00280065 0.0031782 -0.229522 0.00125 395