ITEM: TIMESTEP
1000000
ITEM: NUMBER OF ATOMS
10000
ITEM: BOX BOUNDS pp pp ff
0.0000000000000000e+00 1.2287381637500001e+00
0.0000000000000000e+00 1.2287381637500001e+00
-1.2500000000000001e-02 1.2500000000000001e-02
ITEM: ATOMS type x y z vx vy vz radius id
1 0.812183 0.817767 0.00140225 0.00323281 -0.00411606 -0.227143 0.00125 1
1 0.894206 0.0971888 0.0012304 0.00216884 -0.00177404 -0.046994 0.00125 2
1 1.06657 0.351302 0.00172037 0.00501378 0.00150987 -0.239093 0.00125 3
1 0.0378269 0.144758 0.00187371 -0.0027943 0.00240732 -0.218986 0.00125 4
1 0.591831 0.0718535 0.00130021 -0.00733149 -0.00866909 -0.15508 0.00125 5
1 0.689797 0.615949 0.00145889 0.00118033 0.00150116 -0.246851 0.00125 6
1 0.755479 0.378661 0.0013996 -0.00241928 0.00110765 0.153042 0.00125 7
1 0.768382 0.342323 0.00129004 0.000634887 0.000261706 -0.089684 0.00125 8
1 0.548606 0.403505 0.00212315 -0.00172124 -0.00154909 -0.164628 0.00125 9
1 0.145281 0.0886401 0.00159415 -0.000955313 -0.00275768 -0.1786 0.00125 10
1 1.21396 0.180668 0.00140881 0.00316532 0.00315429 0.173244 0.00125 11
1 0.0875323 0.240938 0.00125094 0.000392051 -0.00582915 0.200668 0.00125 12
1 0.0301735 0.928051 0.00159856 -0.00208739 0.00133699 -0.234072 0.00125 13
1 0.236229 0.405399 0.00174397 -0.00165732 -0.00308862 0.121598 0.00125 14
1 0.638565 0.236389 0.00152025 -0.0181984 0.000812946 0.0661892 0.00125 15
1 0.707469 0.151995 0.0015195 -0.0016156 0.00310751 -0.0747194 0.00125 16
1 0.27194 0.978374 0.00123338 0.00187518 -0.00153183 0.128831 0.00125 17
1 0.310019 0.514107 0.00193407 0.000684173 0.000588097 -0.069484 0.00125 18
1 0.18857 0.575168 0.00150859 0.000976288 -0.00176605 -0.192559 0.00125 19
1 0.856751 0.984406 0.00127626 -0.0012064 0.00254922 0.161104 0.00125 20
1 0.916934 0.0893471 0.00159489 0.0187805 0.0134259 -0.234407 0.00125 21
1 0.872573 0.908896 0.00142656 0.000141382 0.00639637 0.1436 0.00125 22
1 0.478864 0.654775 0.00132908 0.000247822 0.00129268 -0.233959 0.00125 23
1 0.114937 0.238997 0.00128774 -0.0181885 -0.0040876 0.0502001 0.00125 24
1 0.217566 0.281443 0.00126493 0.0130226 -0.00318484 0.21654 0.00125 25
1 1.09928 1.13976 0.00129436 1.71974e-05 0.000981103 0.21206 0.00125 26
1 0.618678 0.967397 0.00192572 0.000196811 -0.00113532 -0.0794687 0.00125 27
1 1.07488 0.79839 0.00151314 0.00100602 0.00128314 0.134295 0.00125 28
1 0.788525 0.307665 0.00163938 -0.0108244 -0.00537032 -0.0899504 0.00125 29
1 0.399832 0.648832 0.00129674 -0.00222772 -0.00104218 0.182901 0.00125 30
1 0.702217 0.174577 0.00142505 0.00256578 -0.000464141 0.14114 0.00125 31
1 0.195606 1.02122 0.00162026 0.00526488 0.0063606 -0.228494 0.00125 32
1 0.430342 0.590096 0.00172686 0.0057424 0.00496959 0.107223 0.00125 33
1 0.385495 0.771758 0.00123158 6.70756e-05 -0.000747624 0.0729206 0.00125 34
1 0.0582864 0.64243 0.00124346 0.00165555 0.00138429 0.193111 0.00125 35
1 0.767551 0.268018 0.00164586 0.00404679 -0.00285166 -0.0879659 0.00125 36
1 1.02843 0.959888 0.00129006 0.00556604 -0.0035038 0.185095 0.00125 37
1 0.614927 0.938483 0.00152393 -0.0034338 -0.00896266 0.108985 0.00125 38
1 0.668222 0.175234 0.00141307 0.000336031 0.000986864 0.148751 0.00125 39
1 0.581216 1.17768 0.00131777 -0.0112989 -0.0172166 0.175867 0.00125 40
1 0.182198 0.878564 0.00139578 -0.000245255 -0.0190333 0.154239 0.00125 41
1 0.888198 1.21877 0.00186566 -0.000192904 -0.00339135 -0.152982 0.00125 42
1 0.524059 0.255233 0.00136513 -0.000190115 0.00424267 -0.252659 0.00125 43
1 0.0823042 0.436622 0.00136938 -0.000834498 0.00383979 0.159333 0.00125 44
1 0.980286 0.30111 0.00150032 -0.00613342 -0.018083 -0.230634 0.00125 45
1 1.14049 0.0762568 0.00156199 0.00509206 -0.00487772 0.0524744 0.00125 46
1 0.698271 0.470401 0.00142706 0.00427583 0.00226915 -0.182817 0.00125 47
1 1.20139 0.511619 0.00132175 0.00387363 -0.00443324 -0.235758 0.00125 48
1 0.614105 0.440372 0.00179486 0.00640855 0.00480587 -0.0855931 0.00125 49
1 0.492997 0.0726504 0.00141464 0.000902156 -0.00487964 -0.226087 0.00125 50
1 0.718043 1.03043 0.00134532 -0.000508987 -0.000661873 0.166032 0.00125 51
1 0.357463 0.55311 0.00132861 0.00686657 -0.0118382 -0.236115 0.00125 52
1 0.420387 0.0703565 0.00185891 -0.0026594 0.00260181 -0.206761 0.00125 53
1 0.103784 1.01499 0.0014661 0.00016457 0.000399576 -0.177431 0.00125 54
1 0.744028 0.224074 0.00125252 0.000919078 -0.0103452 0.199869 0.00125 55
1 1.07009 0.746023 0.00129112 0.00295088 -0.00130133 -0.233607 0.00125 56
1 1.16885 0.9054 0.00128804 -0.00136505 -0.000844029 -0.234628 0.00125 57
1 0.965521 0.178474 0.00156553 -0.000968368 0.00225738 0.0977502 0.00125 58
1 0.172913 0.271036 0.00190363 0.000588818 -0.00623605 -0.079924 0.00125 59
1 0.499935 1.14141 0.0013108 0.00441992 -0.000247717 0.197383 0.00125 60
1 1.1387 1.22601 0.00151401 -0.000732876 0.00262453 -0.23677 0.00125 61
1 0.0993093 0.0188846 0.00143681 -0.00249187 0.00271621 -0.0947373 0.00125 62
1 0.469547 0.438203 0.0023063 0.00641395 -8.05234e-05 -0.153276 0.00125 63
1 0.0521437 0.996386 0.00135212 -9.21633e-05 2.78495e-05 -0.309074 0.00125 64
1 0.780935 0.921167 0.0013187 -0.0068831 0.000166268 0.176193 0.00125 65
1 0.122999 0.0926281 0.00177616 0.00163696 0.00380899 0.141345 0.00125 66
1 0.625686 0.51833 0.00202414 -0.0010305 2.17634e-05 -0.176351 0.00125 67
1 0.552384 0.726263 0.00128119 0.00141961 0.00715679 0.245599 0.00125 68
1 0.406688 0.379902 0.00123104 0.00166718 -0.00147536 0.0676681 0.00125 69
1 0.861565 0.842131 0.00225903 0.00131652 -0.00313239 -0.0489393 0.00125 70
1 0.810594 0.312931 0.00125583 0.000401858 9.77095e-05 0.199275 0.00125 71
1 1.06998 0.773344 0.00219375 -0.00476238 0.0021983 -0.0692812 0.00125 72
1 0.137631 0.118811 0.00151631 -0.00276233 0.00149913 -0.192253 0.00125 73
1 1.22218 1.13048 0.00139676 0.000526287 -0.000113286 0.174377 0.00125 74
1 0.976775 0.691923 0.00165306 -0.00437914 0.00425475 -0.0913534 0.00125 75
1 0.277378 0.744936 0.0024482 -0.00214574 0.000957803 -0.0372813 0.00125 76
1 0.212078 1.03118 0.0014905 -0.00431113 -0.00701715 -0.238855 0.00125 77
1 0.181945 1.0927 0.0012465 0.0148887 -0.00135262 -0.226836 0.00125 78
1 0.913928 1.03916 0.00170037 -0.00169391 0.00613597 -0.22305 0.00125 79
1 0.958618 0.810689 0.00142656 -0.00152379 -0.000330116 0.211925 0.00125 80
1 0.0582568 0.0928557 0.00160632 -0.00101556 0.000413157 0.0519751 0.00125 81
1 1.21866 0.271969 0.00159582 0.000615512 -0.005488 -0.233645 0.00125 82
1 0.777657 1.10963 0.00153542 -0.00270197 0.000466302 0.10127 0.00125 83
1 0.179551 0.552893 0.00248234 0.0021124 0.00182325 -0.0351073 0.00125 84
1 0.0572307 0.120358 0.00167734 0.00575309 -0.000965283 -0.0918511 0.00125 85
1 0.560768 1.20488 0.00128632 -0.00173914 0.000342145 -0.303851 0.00125 86
1 0.0311302 0.625966 0.00124555 0.00401486 0.000594471 -0.0240065 0.00125 87
1 0.606128 0.443237 0.0017788 0.00445256 -0.000856567 -0.261686 0.00125 88
1 0.0515897 0.10625 0.00162133 0.000117199 0.00314201 -0.182316 0.00125 89
1 0.631428 0.675329 0.00129598 -0.00189121 0.000629948 0.182805 0.00125 90
1 0.493764 0.97919 0.00141175 -0.00151658 -0.0106595 -0.23938 0.00125 91
1 0.0314 0.0400115 0.0015783 0.00256667 0.00622326 -0.251855 0.00125 92
1 0.837106 0.512528 0.0013972 -0.00035826 -0.0160722 0.150148 0.00125 93
1 0.0582263 1.18417 0.00141366 0.00683907 0.000390574 0.14481 0.00125 94
1 0.769572 0.933216 0.00131643 0.000457101 8.10071e-06 -0.235148 0.00125 95
1 1.18965 0.652564 0.00193885 -0.00146999 -0.00748191 -0.200047 0.00125 96
1 0.549367 1.05677 0.00157252 0.00206783 0.00785277 0.0947415 0.00125 97
1 1.11357 0.630562 0.00142979 -0.000694113 -0.00126157 0.218842 0.00125 98
1 1.13246 1.02535 0.00130079 -0.000782796 -0.000266095 0.200875 0.00125 99
1 0.124523 0.0774946 0.0015124 -0.00301529 -0.00162832 -0.238217 0.00125 100
1 0.886925 0.714523 0.00219001 0.00167648 0.000963096 -0.0537735 0.00125 101
1 1.20877 0.194454 0.00186326 -0.000111473 0.00799752 -0.152745 0.00125 102
1 1.11673 0.662691 0.00131225 -0.000159054 0.00134704 -0.246892 0.00125 103
1 0.571265 0.853088 0.00244907 0.0197684 -0.00580862 -0.0372855 0.00125 104
1 0.598968 0.152615 0.00122528 0.000744276 -0.000450619 0.0913559 0.00125 105
1 0.0734111 0.808128 0.00195799 -0.00123533 -0.000273635 -0.0679523 0.00125 106
1 0.641479 0.825937 0.00177439 -0.000619525 -0.0010786 0.160435 0.00125 107
1 0.67456 1.19409 0.00176151 -0.00512167 0.000688689 0.126852 0.00125 108
1 0.0803894 0.260161 0.00150986 0.00426782 -0.00623314 0.214285 0.00125 109
1 0.36894 0.553369 0.00158666 0.00112396 -0.00588975 -0.178404 0.00125 110
1 1.07451 0.888404 0.0012893 -0.000102874 0.00109418 0.185251 0.00125 111
1 1.04764 0.908055 0.00209325 0.00695876 -0.00308526 -0.0588384 0.00125 112
1 0.116255 1.14166 0.0015425 0.00445207 0.000982554 -0.232195 0.00125 113
1 0.573153 0.594782 0.00161606 -0.00546438 -0.000673506 0.096313 0.00125 114
1 0.30473 0.534892 0.0017359 -0.000244421 -0.000115058 0.120371 0.00125 115
1 0.628472 1.13266 0.00209358 0.00349167 0.00461968 -0.176778 0.00125 116
1 0.187869 0.376121 0.00202354 0.00873001 0.0085303 -0.0636445 0.00125 117
1 0.347866 0.393332 0.0012502 -0.00115843 -0.00285895 0.197995 0.00125 118
1 0.26691 0.979658 0.00145812 0.00239543 0.00479903 -0.247407 0.00125 119
1 1.09766 0.0517502 0.00158186 -0.000820546 -0.00286591 -0.252401 0.00125 120
1 0.819302 0.462493 0.00132481 0.000583171 -0.00190965 -0.235235 0.00125 121
1 0.129322 0.596303 0.00158355 -0.00742656 -0.00633691 0.0504012 0.00125 122
1 0.586237 1.06321 0.00143083 0.0057045 0.00713697 -0.227497 0.00125 123
1 0.117101 0.0206858 0.00170258 0.00589626 -0.0146344 0.0694603 0.00125 124
1 1.09483 0.139257 0.00136436 -0.0171428 0.00142533 -0.237924 0.00125 125
1 0.551495 0.0460024 0.00132896 0.00289053 -0.00343957 0.175197 0.00125 126
1 0.801444 0.435698 0.00127974 0.00487717 0.00357268 0.259786 0.00125 127
1 0.827725 0.348018 0.00240998 0.00180606 2.03705e-05 -0.040015 0.00125 128
1 0.0136988 0.0845565 0.00131644 0.000443294 0.00701668 -0.23475 0.00125 129
1 0.814919 0.343206 0.0012553 0.00992414 0.00494702 -0.254975 0.00125 130
1 0.489255 0.045417 0.00135947 -0.018836 -0.00371035 0.190901 0.00125 131
1 0.567541 1.03397 0.00219047 -0.0147791 0.00904183 -0.0477534 0.00125 132
1 0.342552 0.000764787 0.00168634 0.00451759 0.00992455 -0.230691 0.00125 133
1 0.0395096 0.280751 0.00129454 0.00276885 0.0017228 0.160865 0.00125 134
1 0.932064 0.877478 0.00155727 -0.00422274 -0.00363135 -0.289329 0.00125 135
1 0.192502 0.256358 0.00123199 -0.00033357 -3.7649e-05 -0.102832 0.00125 136
1 0.430946 0.926714 0.00143828 0.0010231 0.00281972 -0.197453 0.00125 137
1 0.619839 1.16956 0.00145293 0.00600732 0.00657628 0.129161 0.00125 138
1 0.862425 0.911577 0.00154475 -4.40485e-05 -0.00122831 0.0566103 0.00125 139
1 0.788835 0.15513 0.00141627 -0.000440429 -0.00470157 -0.230616 0.00125 140
1 0.148398 0.586761 0.00139397 -0.00987086 -0.0597744 0.0656448 0.00125 141
1 0.347223 0.887386 0.00172662 -0.00761559 -0.00256152 -0.269052 0.00125 142
1 0.245303 1.05757 0.00156241 -7.99285e-05 -0.000256715 0.0998141 0.00125 143
1 0.117492 0.0695821 0.00141267 -0.00672627 -0.00363232 0.111463 0.00125 144
1 0.31244 0.79106 0.00131501 -0.00181648 0.00271921 -0.247296 0.00125 145
1 1.06346 0.226607 0.00128549 -0.000239809 -0.00181003 0.205563 0.00125 146
1 1.10523 0.216542 0.00209888 -0.00813432 -0.0010128 -0.0526496 0.00125 147
1 0.533883 0.779934 0.00172984 0.000860275 0.00206631 -0.0340231 0.00125 148
1 1.17179 1.2081 0.00157213 0.00298541 -0.00167613 -0.229239 0.00125 149
1 0.673422 0.0711503 0.00173549 0.017266 0.0036481 0.0731633 0.00125 150
1 0.870184 1.05414 0.00135634 0.00530297 0.000421487 0.188942 0.00125 151
1 0.890828 0.801558 0.00158051 0.00423751 -0.000141957 0.138659 0.00125 152
1 1.19554 1.12628 0.00175062 0.00142173 0.00372112 -0.218305 0.00125 153
1 0.702382 0.0764855 0.00135391 -0.00676462 0.00769336 -0.0812588 0.00125 154
1 0.882139 1.17773 0.00157581 -0.0070004 -0.000756339 0.0954413 0.00125 155
1 0.686099 0.396923 0.00126974 -0.00308493 0.00096413 0.163001 0.00125 156
1 0.364975 1.21592 0.0015728 -0.0128236 -0.00273676 -0.183644 0.00125 157
1 0.298563 0.00608863 0.00159277 0.00196432 -0.00232315 0.0517221 0.00125 158
1 0.981162 0.263616 0.00130675 -0.00105359 0.00204422 -0.205911 0.00125 159
1 0.288883 0.169011 0.00123187 0.000586895 0.0048215 -0.0995856 0.00125 160
1 0.763057 0.264006 0.00155684 -0.00170513 -0.0041497 -0.19242 0.00125 161
1 0.224384 1.06614 0.00137715 0.00112377 0.00421449 0.265891 0.00125 162
1 1.1801 0.0966594 0.00130036 0.00107599 0.00184441 -0.233868 0.00125 163
1 0.815182 0.121079 0.00133006 -0.00498329 0.00422757 -0.08097 0.00125 164
1 0.666715 0.97889 0.00123142 0.00234481 0.000940473 -0.0916405 0.00125 165
1 0.00453148 0.639483 0.00140003 -0.00726849 -0.00276128 0.150196 0.00125 166
1 1.08287 1.04412 0.00140174 0.00247443 0.000131906 0.149273 0.00125 167
1 0.72874 1.11674 0.00126664 -0.00341811 0.014519 0.189687 0.00125 168
1 0.536212 0.819448 0.00153091 0.0116082 -0.0153312 -0.231361 0.00125 169
1 1.0382 0.626881 0.00150659 -0.00609171 0.00272728 0.208457 0.00125 170
1 1.12594 1.14253 0.00147017 0.00147902 0.0134822 -0.233357 0.00125 171
1 0.866462 1.19906 0.0012528 0.00246572 0.000530953 0.0046111 0.00125 172
1 1.08467 0.50402 0.00141058 -0.000998584 -0.000232996 0.214206 0.00125 173
1 0.321862 0.030172 0.00165888 0.0121365 0.00326519 -0.224309 0.00125 174
1 0.794223 0.282958 0.00148916 -0.00376732 -0.00630835 0.0781961 0.00125 175
1 0.0456044 0.215396 0.00156503 0.00549075 -0.00283666 -0.174801 0.00125 176
1 0.959684 0.582128 0.00125041 -0.00173995 0.00323938 0.196454 0.00125 177
1 0.898735 0.833256 0.00144964 -0.0011801 -0.0015699 0.135166 0.00125 178
1 0.682307 0.404893 0.00131626 0.000871249 0.00117823 0.14342 0.00125 179
1 0.467887 0.94542 0.00203493 0.00343953 0.00728548 -0.220685 0.00125 180
1 0.863274 0.829922 0.00240747 0.00453927 0.000352207 -0.120259 0.00125 181
1 0.179638 0.0390257 0.00130347 0.0155886 -0.0203008 -0.231355 0.00125 182
1 0.382542 0.499585 0.00173377 -0.00156778 0.00308241 -0.23603 0.00125 183
1 0.497072 0.23063 0.00139652 -0.00201076 -0.00750651 0.222258 0.00125 184
1 0.955663 0.46174 0.00167586 0.00229188 -0.00210415 -0.228649 0.00125 185
1 0.510706 0.0716118 0.00140006 -0.000398202 0.00337693 -0.237477 0.00125 186
1 0.0125392 0.325893 0.00130073 0.00267026 -0.00631198 -0.233943 0.00125 187
1 0.658707 1.1039 0.00146889 -0.00142694 -0.0171736 -0.179992 0.00125 188
1 0.404885 1.12423 0.00153046 -0.00350938 0.0024262 -0.0652701 0.00125 189
1 1.18379 0.113073 0.00139953 0.00330158 -0.00341391 0.18148 0.00125 190
1 0.155915 0.740002 0.00157557 -0.0154854 0.00439219 -0.183627 0.00125 191
1 0.0909049 0.681297 0.00160371 0.00213082 0.00389376 0.0492285 0.00125 192
1 0.905486 0.847134 0.00214577 0.000542907 0.000507479 -0.0179433 0.00125 193
1 0.554275 0.352427 0.00170889 -0.00348135 0.00447687 0.0919206 0.00125 194
1 1.03029 0.165067 0.00162226 -0.00554657 0.00416505 -0.0931948 0.00125 195
1 0.633609 1.06253 0.00172618 0.0044276 0.00242327 -0.227647 0.00125 196
1 0.389469 0.936617 0.00131121 0.00125681 0.00467567 -0.234665 0.00125 197
1 0.759642 0.435968 0.00124113 -0.00721861 0.0176144 -0.229449 0.00125 198
1 0.447833 1.0227 0.00127476 0.0129402 -0.0193208 0.188088 0.00125 199
1 0.126251 0.732825 0.00127945 0.0266797 0.0141319 -0.225926 0.00125 200
1 0.984034 0.685014 0.00148128 -0.00310359 0.00140551 -0.244134 0.00125 201
1 1.10439 0.645279 0.00198378 -0.00162689 0.00120377 -0.0769766 0.00125 202
1 0.573009 0.797395 0.0015201 0.000420844 -0.000330057 0.109801 0.00125 203
1 0.79343 0.00752414 0.00151838 0.00903264 -0.0129154 0.0557414 0.00125 204
1 0.447471 0.0455108 0.002381 -0.00416884 -0.0020132 -0.0419327 0.00125 205
1 0.240465 0.819704 0.00134127 -0.00354209 0.00019755 0.169449 0.00125 206
1 0.498413 0.536099 0.00177779 0.000964856 0.000109408 -0.264059 0.00125 207
1 0.0613331 0.806667 0.00159172 0.00262716 0.000124004 0.0965393 0.00125 208
1 0.825578 0.960914 0.00125197 0.0052442 -0.00363483 0.191038 0.00125 209
1 0.530546 0.551891 0.00157422 0.00318383 0.00391365 0.0861227 0.00125 210
1 1.09434 1.19111 0.00128027 -0.00631822 6.7743e-05 0.205651 0.00125 211
1 0.874676 0.126947 0.00137936 -0.00410559 0.000593109 -0.0673361 0.00125 212
1 0.138215 0.109875 0.00133791 -0.0032792 0.00118331 -0.309605 0.00125 213
1 0.787565 1.12307 0.00138683 0.00207796 -0.00096201 0.154858 0.00125 214
1 0.541593 0.320771 0.00126424 -0.000546838 -0.000336213 -0.236976 0.00125 215
1 1.14206 0.165742 0.0016095 0.00239903 -0.0098236 -0.0929158 0.00125 216
1 0.375956 0.961096 0.00133332 0.00513694 -0.00102775 -0.232583 0.00125 217
1 0.535428 0.103997 0.00184354 0.000248399 -0.00643765 -0.0743249 0.00125 218
1 0.879776 0.726766 0.00161387 0.000762254 -0.00263027 -0.233237 0.00125 219
1 0.731826 0.930109 0.00165708 -0.000995334 -0.0037898 0.0934348 0.00125 220
1 0.24125 0.775014 0.00152689 -0.000971443 0.000524483 -0.190698 0.00125 221
1 0.960166 0.585187 0.00143329 0.00269185 0.00352523 0.100655 0.00125 222
1 1.20421 0.248375 0.00163389 -0.00627892 0.00266598 0.0545021 0.00125 223
1 0.575274 0.424963 0.00127725 0.0131636 0.0105347 -0.231679 0.00125 224
1 0.360736 0.925856 0.00126406 0.00350486 -0.000451543 0.124063 0.00125 225
1 0.172184 0.902558 0.00141439 0.000133873 0.002827 0.218305 0.00125 226
1 0.25391 0.279443 0.00123022 0.000236086 -0.000493263 -0.0239462 0.00125 227
1 0.345603 0.804551 0.00221058 -0.00409441 0.00120325 -0.150773 0.00125 228
1 0.696581 0.870039 0.00143456 0.00748482 0.00502721 -0.109152 0.00125 229
1 0.861216 0.696645 0.00162389 0.00662414 0.0189863 0.0523273 0.00125 230
1 0.347741 0.102544 0.00153743 0.00358499 0.0102924 -0.0875781 0.00125 231
1 0.381332 0.587134 0.00127569 0.00363308 0.00732849 -0.0493715 0.00125 232
1 0.63947 0.648308 0.00203896 0.000572885 0.00337098 -0.0626093 0.00125 233
1 0.51047 0.782879 0.00125136 0.000317127 0.000518248 -0.224083 0.00125 234
1 0.297531 1.16789 0.00231863 0.000422448 0.00125087 -0.13101 0.00125 235
1 1.08983 0.452836 0.00139754 -0.000736712 -0.00216781 0.149442 0.00125 236
1 0.200868 0.985551 0.00151258 0.00213083 0.000989383 -0.193 0.00125 237
1 1.06083 0.448085 0.00131107 -0.00246213 -0.00068065 0.163085 0.00125 238
1 0.062821 0.532162 0.00154166 0.00353271 0.00575632 -0.188176 0.00125 239
1 0.750672 0.959596 0.00129018 -0.000784089 0.00988001 -0.31006 0.00125 240
1 0.340139 0.218546 0.00165944 -0.0221175 -0.0005867 0.0590562 0.00125 241
1 1.16987 0.248421 0.00151148 -0.000605001 0.00184504 0.0648225 0.00125 242
1 0.587462 0.218158 0.00149473 -0.00611389 -0.00857562 -0.231138 0.00125 243
1 0.00115168 0.570529 0.00131497 0.0036859 0.00164215 -0.234758 0.00125 244
1 0.979671 0.694216 0.00243514 -0.00519162 -0.00144136 -0.0790966 0.00125 245
1 0.000725636 1.06614 0.00204592 -0.00067557 0.00342838 0.00200237 0.00125 246
1 0.746645 0.570573 0.00123039 0.000272562 0.00187819 -0.0275266 0.00125 247
1 0.856273 0.864834 0.00174104 0.00115088 -0.00368088 -0.222582 0.00125 248
1 1.02859 0.734013 0.00123007 0.000455881 0.00462803 -0.0039162 0.00125 249
1 1.19474 0.398529 0.0014147 -0.00704941 -0.0022877 0.110124 0.00125 250
1 0.0247888 0.0144383 0.00125791 0.000245724 0.00146205 -0.291215 0.00125 251
1 0.539199 0.624658 0.00123745 -0.00139404 0.000247726 -0.186029 0.00125 252
1 0.160341 0.601006 0.00128553 0.00497506 0.00269757 -0.233305 0.00125 253
1 0.83863 0.283607 0.00227415 -0.000733692 0.00169962 -0.13498 0.00125 254
1 0.19927 0.33716 0.00129466 -0.00474717 -0.000453275 0.183958 0.00125 255
1 0.42172 0.314799 0.00159243 0.0056188 0.00310538 -0.177913 0.00125 256
1 0.692224 0.509274 0.00143489 -0.000314483 -0.00136867 0.166852 0.00125 257
1 0.117358 1.06323 0.00123167 -0.00145792 -0.00808092 -0.00856781 0.00125 258
1 0.627029 0.0542771 0.00138663 0.00738613 -0.00663689 -0.200266 0.00125 259
1 0.964511 0.216431 0.00209197 0.00058439 8.8956e-05 -0.0317808 0.00125 260
1 1.20482 0.721844 0.00141847 0.00169244 0.00114813 -0.239317 0.00125 261
1 0.425193 1.14194 0.00141858 -0.0115403 -0.0202491 -0.228362 0.00125 262
1 0.870448 0.548659 0.00146324 0.00537168 0.00265991 0.22387 0.00125 263
1 0.370394 0.944486 0.00160182 -0.00867842 -0.00267782 0.0612362 0.00125 264
1 0.468515 0.0758482 0.00145417 0.00579408 0.00767312 -0.180941 0.00125 265
1 0.801993 0.263361 0.00140239 0.00107918 -0.0109412 0.149293 0.00125 266
1 0.753213 0.0753285 0.00175901 0.00432861 -0.00605887 -0.225645 0.00125 267
1 1.03979 0.0113321 0.0012418 0.00761777 -0.00461872 -0.204528 0.00125 268
1 0.0158868 0.173751 0.00135372 -0.00302522 -0.00380703 0.241253 0.00125 269
1 0.0806804 0.586407 0.00132363 -0.00522266 0.00265501 0.145806 0.00125 270
1 0.817374 0.635407 0.00177154 -0.010335 0.0088329 -0.0302388 0.00125 271
1 0.733522 0.600355 0.00136419 -0.00442931 -0.00219432 0.18452 0.00125 272
1 1.05922 0.977594 0.00166781 0.00501619 -0.00231352 0.0920309 0.00125 273
1 0.5351 0.983173 0.00216523 -0.00185689 0.00116703 -0.05508 0.00125 274
1 0.325707 0.507078 0.00123039 -5.14639e-05 -0.00221885 -0.0418073 0.00125 275
1 1.21979 0.335677 0.00208369 0.00378111 -0.00489034 -0.176585 0.00125 276
1 0.228383 0.941153 0.00137249 0.00391138 -0.00158413 -0.238114 0.00125 277
1 0.612224 0.41846 0.00139748 0.0195889 -0.0260125 -0.244309 0.00125 278
1 0.55436 0.205521 0.00124169 -0.00401805 0.000760146 -0.213284 0.00125 279
1 0.436918 0.411964 0.00127252 -0.00469727 -0.00144413 0.273149 0.00125 280
1 0.919942 1.19659 0.00155815 0.0013813 -0.000277417 0.102124 0.00125 281
1 0.595099 0.412604 0.00158386 0.00235481 -0.00489276 -0.171999 0.00125 282
1 0.629488 0.418244 0.00131351 -0.000988158 0.0026049 0.182805 0.00125 283
1 1.08786 0.0592173 0.00214384 0.00376318 0.00231891 -0.161199 0.00125 284
1 0.350179 1.08586 0.00149617 0.000351432 -0.000575588 0.222229 0.00125 285
1 0.31557 0.244137 0.00190763 -0.00400086 0.000344172 -0.0361777 0.00125 286
1 0.380972 0.491617 0.00136497 0.000377926 0.0104447 -0.228233 0.00125 287
1 0.527297 0.820606 0.00139741 0.00105276 0.00838074 -0.110548 0.00125 288
1 0.418234 0.737225 0.00214711 -0.000761993 0.00111628 -0.0559376 0.00125 289
1 0.114891 1.06622 0.00136758 0.00587671 -0.00846849 -0.238145 0.00125 290
1 0.567669 1.2287 0.00132854 -0.00236327 0.00314735 -0.233128 0.00125 291
1 0.517635 1.06934 0.00197335 -0.00149866 0.000694946 -0.0285998 0.00125 292
1 1.07819 0.417638 0.00203515 0.000438109 0.000511258 -0.0229373 0.00125 293
1 0.334886 0.13399 0.00133806 -0.000932996 0.00222715 0.196897 0.00125 294
1 1.19244 0.813864 0.00132682 -0.0119008 -0.00403576 -0.23529 0.00125 295
1 0.459617 0.560606 0.00126967 -0.000122318 0.00172103 -0.020619 0.00125 296
1 0.367227 0.213206 0.00148798 -1.99357e-05 0.000238546 -0.193649 0.00125 297
1 0.935444 1.00918 0.00137413 -0.0179373 -0.0105719 0.161224 0.00125 298
1 0.898393 0.176148 0.00222578 -0.00728394 0.013399 -0.0515481 0.00125 299
1 0.146877 0.820484 0.00132666 -0.00551941 -0.00695064 -0.0808094 0.00125 300
1 0.368817 0.414513 0.00166724 -0.013149 -0.000494312 -0.279764 0.00125 301
1 1.09902 0.726873 0.00143566 0.000716168 6.67839e-05 -0.239523 0.00125 302
1 1.06974 0.739358 0.00171409 0.00486159 -0.0037041 -0.225402 0.00125 303
1 0.687664 0.194749 0.00149965 -0.0191905 0.0184962 -0.238708 0.00125 304
1 0.661047 1.18001 0.00127875 -0.00137439 0.00319847 -0.223919 0.00125 305
1 0.55134 1.07766 0.00133144 -0.0129652 0.00669292 0.231724 0.00125 306
1 0.10286 0.241722 0.00172439 -0.000539177 -0.00839105 -0.0425403 0.00125 307
1 0.343443 0.960323 0.00228763 -0.00314174 -0.0117822 -0.0473681 0.00125 308
1 1.09257 0.112864 0.00127118 -0.00266307 0.000310208 0.241108 0.00125 309
1 0.83034 0.265455 0.00140869 -0.00241274 -0.000730328 0.178729 0.00125 310
1 0.935826 0.340207 0.00239126 -0.000234322 -0.00800772 -0.093573 0.00125 311
1 1.14722 0.817278 0.00194604 -0.00194024 -0.00216695 -0.187676 0.00125 312
1 0.739703 0.108147 0.00176446 0.0081924 -0.00905615 -0.0800425 0.00125 313
1 0.477388 0.245539 0.00178026 -0.000203744 -0.0146275 -0.0799846 0.00125 314
1 0.531035 0.0293477 0.00140075 0.00308566 -0.00515708 0.150031 0.00125 315
1 0.0542345 0.86702 0.00177395 0.00589568 -0.0117728 -0.0795956 0.00125 316
1 1.12826 0.613843 0.00141335 -0.00582605 -0.00319093 0.218281 0.00125 317
1 0.580232 0.596057 0.00154378 0.0109972 -0.00548277 -0.233039 0.00125 318
1 0.282576 0.750441 0.00169226 0.00215625 -0.00214365 -0.0484928 0.00125 319
1 0.845458 0.636566 0.00155774 -0.00177033 -0.00132772 -0.236478 0.00125 320
1 0.151758 0.979101 0.00148711 0.000986972 -0.00215018 -0.238856 0.00125 321
1 0.145026 0.686266 0.00124754 0.000820003 -0.00465075 0.213938 0.00125 322
1 0.430525 1.08286 0.00148164 0.00139362 -0.00226422 -0.29976 0.00125 323
1 0.414125 0.604822 0.00128732 0.00937177 -0.00285568 -0.304963 0.00125 324
1 0.0344028 0.937842 0.00131708 0.00487057 0.0103696 -0.236203 0.00125 325
1 0.825385 0.533817 0.00122979 -0.00411163 0.00376202 0.0715346 0.00125 326
1 1.15236 0.54115 0.00125353 0.00516662 -0.000495896 0.195498 0.00125 327
1 1.12278 0.901429 0.00194284 0.00302776 0.0047284 -0.0808196 0.00125 328
1 1.16324 0.318602 0.00142325 -0.00296181 0.00474909 0.219074 0.00125 329
1 0.740468 0.391443 0.00131852 0.00127337 0.00198461 0.152341 0.00125 330
1 0.335867 0.525612 0.00150847 -0.002025 0.000480195 -0.233092 0.00125 331
1 1.01107 0.163888 0.00157335 0.00667935 0.00131084 -0.238645 0.00125 332
1 0.852323 0.598768 0.00126133 -0.0040725 0.000727799 -0.248107 0.00125 333
1 0.560311 0.996735 0.00151734 -0.023683 -0.0245902 0.202795 0.00125 334
1 0.0782537 0.636586 0.00160581 0.00194535 0.00162892 -0.250298 0.00125 335
1 1.01561 1.14956 0.00138299 0.00615504 -0.00141344 0.181174 0.00125 336
1 1.14325 0.793214 0.00167479 -0.00261882 -0.000187837 -0.0539422 0.00125 337
1 0.402206 0.310238 0.00232153 -0.00598962 0.00267172 -0.121581 0.00125 338
1 0.990333 0.329463 0.00123055 0.000867499 1.17077e-05 -0.0529123 0.00125 339
1 1.02569 0.781203 0.00156783 0.00721559 0.000973947 -0.18573 0.00125 340
1 0.795331 0.355001 0.00163709 0.00136296 -0.000522557 0.0928193 0.00125 341
1 0.481639 0.890107 0.0012948 -0.00357338 0.000968797 0.208749 0.00125 342
1 0.0371951 0.10088 0.00137848 0.00097584 0.000764251 0.223034 0.00125 343
1 0.639292 1.20219 0.00231413 0.00968673 -0.0137274 -0.00347832 0.00125 344
1 1.2172 0.52476 0.00163007 -0.00191338 0.0039355 -0.0920039 0.00125 345
1 1.12009 1.08269 0.00122424 -0.00266443 0.000947109 0.0076899 0.00125 346
1 1.01248 0.729337 0.0021168 0.00410333 0.00142222 -0.170396 0.00125 347
1 1.05364 0.394267 0.00126618 0.000158696 0.000648458 -0.116099 0.00125 348
1 1.18294 0.873793 0.00126664 0.0027817 -1.30993e-05 0.241433 0.00125 349
1 0.185361 0.0462803 0.00238674 -0.00921662 -0.00263637 -0.0998209 0.00125 350
1 0.105325 0.492767 0.00142889 -0.00141447 0.00341399 0.142092 0.00125 351
1 0.599407 0.997214 0.00156542 0.00141296 0.00202055 -0.049165 0.00125 352
1 0.832591 1.17085 0.00141222 0.00138156 -0.0109282 -0.239805 0.00125 353
1 0.109858 0.871661 0.00183321 0.00174328 0.000490801 -0.213809 0.00125 354
1 0.734611 0.182249 0.00171289 -0.0105496 0.00694261 0.0908806 0.00125 355
1 0.0192053 0.647141 0.0012831 0.00318889 0.000217788 0.205564 0.00125 356
1 0.97908 0.451447 0.00139784 0.00227258 0.00581534 -0.239264 0.00125 357
1 1.19552 0.501454 0.00134823 0.00489381 0.00157788 -0.237264 0.00125 358
1 0.496517 0.699644 0.00153143 0.000825129 -0.00357857 -0.190134 0.00125 359
1 0.324494 0.941724 0.00151593 -0.00234924 0.000638604 0.107915 0.00125 360
1 1.08758 0.455213 0.00142987 0.0244491 -0.00350483 -0.180557 0.00125 361
1 0.285275 0.881901 0.00214687 -0.0156621 -0.0116194 -0.0518556 0.00125 362
1 0.281541 1.12343 0.00126134 -0.00193389 0.00856343 0.197414 0.00125 363
1 0.3578 0.155501 0.0023639 0.000505821 -0.00107326 -0.0376993 0.00125 364
1 0.14228 0.0288303 0.00142791 0.00223354 0.010734 -0.234396 0.00125 365
1 0.0234884 0.924245 0.00211631 -0.00138326 -0.00265589 -0.170313 0.00125 366
1 0.644823 1.04587 0.00134927 0.00129155 -0.0167778 0.187845 0.00125 367
1 0.53569 0.0584399 0.00199876 0.00767797 0.000355267 -0.19982 0.00125 368
1 0.351588 0.757951 0.00141493 0.000494482 0.000156797 -0.239856 0.00125 369
1 0.273212 0.0170887 0.00184497 -0.000110644 0.00345445 -0.0804691 0.00125 370
1 0.916421 1.14118 0.00140153 0.005308 -0.00146579 -0.295493 0.00125 371
1 1.0976 0.347229 0.00132367 -0.00371054 -0.00191976 0.17422 0.00125 372
1 0.285128 0.212781 0.00220684 -0.000539821 -0.00100207 -0.0682975 0.00125 373
1 0.208203 1.05474 0.00162741 -0.00284291 0.00240891 -0.0904011 0.00125 374
1 0.249571 0.266773 0.0014453 0.001303 -0.00265072 0.121097 0.00125 375
1 0.137973 0.807272 0.00145631 0.00686031 -0.00329927 -0.30177 0.00125 376
1 0.436261 0.971136 0.00153543 -0.00123381 0.00319537 -0.237155 0.00125 377
1 0.530656 0.832509 0.00126503 0.00333931 0.00163184 0.193657 0.00125 378
1 1.02661 0.171766 0.00126346 -0.00950323 0.00232033 0.0888375 0.00125 379
1 0.853472 0.498036 0.00127145 0.0002471 0.00356013 0.240064 0.00125 380
1 1.07818 1.10709 0.00136386 -0.00381401 0.0115405 0.164202 0.00125 381
1 0.8617 0.596591 0.00156047 -0.000214391 0.000161942 -0.234924 0.00125 382
1 1.01484 0.418317 0.00123222 -0.000152412 -0.000558066 -0.0401896 0.00125 383
1 0.496874 0.808633 0.00133322 -0.000531057 -0.000359727 0.230045 0.00125 384
1 1.21861 1.18075 0.0021403 -0.000500184 0.00104689 -0.166133 0.00125 385
1 0.270613 0.0861811 0.00135652 -0.00477184 -0.0120467 0.164434 0.00125 386
1 0.668833 1.16915 0.00167046 -0.00367707 -0.014159 0.0942067 0.00125 387
1 0.52712 0.850368 0.00148665 0.000182924 -0.000182885 0.22696 0.00125 388
1 1.15101 0.774508 0.00155043 0.00239728 -0.00701731 0.137166 0.00125 389
1 0.750154 0.781442 0.00149613 0.00388589 0.00320092 -0.0645053 0.00125 390
1 0.859104 0.0378383 0.00126911 0.00353972 -0.0056126 0.187471 0.00125 391
1 0.501396 0.183549 0.00140233 0.00430963 -0.0120621 -0.223685 0.00125 392
1 0.899479 0.869546 0.00123348 -0.000881266 -0.000168453 0.150644 0.00125 393
1 0.0472713 1.21787 0.00162081 1.79621e-05 0.000381746 -0.0916039 0.00125 394
1 1.0976 1.16382 0.00161521 0.000722564 0.000278197 -0.10048 0.00125 395