ITEM: TIMESTEP
1000000
ITEM: NUMBER OF ATOMS
10000
ITEM: BOX BOUNDS pp pp ff
0.0000000000000000e+00 7.3483901125000006e-01
0.0000000000000000e+00 7.3483901125000006e-01
-1.2500000000000001e-02 1.2500000000000001e-02
ITEM: ATOMS type x y z vx vy vz radius id
1 0.409248 0.16965 0.00230655 0.00158409 -0.00942407 -0.120603 0.00125 1
1 0.170194 0.471001 0.00134402 0.00417874 0.0017918 0.230005 0.00125 2
1 0.719156 0.435641 0.00221434 -0.00835815 0.00420851 -0.0516096 0.00125 3
1 0.356172 0.220521 0.00179146 0.0126486 -0.0125869 -0.201494 0.00125 4
1 0.492484 0.0878143 0.00146265 0.0692121 -0.00136304 0.123646 0.00125 5
1 0.173013 0.408006 0.00130461 -0.0193619 0.00345667 0.199438 0.00125 6
1 0.35548 0.298677 0.00167967 0.00730064 0.00386061 -0.0529699 0.00125 7
1 0.452596 0.318408 0.00149076 0.000820527 0.00341798 -0.195885 0.00125 8
1 0.548591 0.323074 0.00163693 0.00570288 0.0217137 -0.178643 0.00125 9
1 0.161023 0.0228935 0.00220405 -0.00710617 0.00321866 -0.156653 0.00125 10
1 0.208809 0.274063 0.00143694 -0.00639518 -0.00547341 0.216901 0.00125 11
1 0.241376 0.304893 0.00151602 -0.00199624 0.000849038 -0.229116 0.00125 12
1 0.729439 0.210627 0.00158954 0.00144295 -0.00462801 -0.0880954 0.00125 13
1 0.675795 0.68536 0.00136556 0.0102691 0.0158822 0.13349 0.00125 14
1 0.315292 0.579189 0.00154664 -0.00193099 0.0156571 -0.183012 0.00125 15
1 0.0732519 0.0809952 0.0014829 0.00244408 -0.00584968 -0.244434 0.00125 16
1 0.497854 0.211331 0.00148359 0.00907638 0.0103173 -0.0901564 0.00125 17
1 0.283422 0.50036 0.00138313 0.00300867 -0.00888302 0.120813 0.00125 18
1 0.458237 0.0743727 0.00136057 -0.00814916 -0.000773858 0.158876 0.00125 19
1 0.117063 0.667155 0.00151918 0.00353988 -0.00427737 0.10881 0.00125 20
1 0.654545 0.306169 0.00252321 0.00202264 0.00219733 -0.0363396 0.00125 21
1 0.585866 0.619141 0.00155682 -0.000650669 8.70667e-05 -0.230983 0.00125 22
1 0.597457 0.0233406 0.00127082 -0.0140845 0.0209139 -0.236704 0.00125 23
1 0.582056 0.240768 0.00124362 -0.00177993 -0.000730185 -0.0358256 0.00125 24
1 0.157081 0.199156 0.00122538 -0.0025737 -0.00222489 -0.0390623 0.00125 25
1 0.175127 0.194011 0.00140955 0.00510132 0.00761989 -0.199297 0.00125 26
1 0.646888 0.542085 0.00133194 -0.00530537 0.00327795 0.192671 0.00125 27
1 0.656114 0.04525 0.00131618 -0.012334 -0.00202424 -0.19546 0.00125 28
1 0.68196 0.58184 0.00140316 0.0188996 0.0184551 0.145331 0.00125 29
1 0.264356 0.41617 0.00129194 -0.00072875 0.000610502 0.18733 0.00125 30
1 0.253046 0.104283 0.00167167 -0.0195355 -0.00435755 0.0584035 0.00125 31
1 0.463451 0.0690621 0.00188176 -0.00694137 -0.00152195 -0.207382 0.00125 32
1 0.47948 0.292895 0.00178321 0.0195912 -0.00877703 0.0918237 0.00125 33
1 0.667937 0.230272 0.00142995 -0.00207704 0.00594516 0.138419 0.00125 34
1 0.0853013 0.276429 0.00155893 -0.00466546 0.0157493 0.230065 0.00125 35
1 0.0954861 0.120721 0.00125685 -0.0162198 0.0001502 -0.027826 0.00125 36
1 0.184601 0.233075 0.00152899 -0.00415526 -0.00814002 -0.229865 0.00125 37
1 0.61531 0.362753 0.00154829 0.00173411 0.0107022 0.102477 0.00125 38
1 0.232274 0.623601 0.00148364 -0.00345746 -0.0140805 -0.0570064 0.00125 39
1 0.59175 0.574203 0.00145037 0.00665972 0.0254165 -0.180581 0.00125 40
1 0.500135 0.60611 0.00157868 0.000404649 -0.00994432 -0.234771 0.00125 41
1 0.236621 0.361846 0.00128306 0.0122046 -0.00985811 0.238479 0.00125 42
1 0.0988339 0.491534 0.00135228 -0.0022741 0.00487112 0.169037 0.00125 43
1 0.0922923 0.572313 0.00141899 -0.0158685 0.0504517 0.200496 0.00125 44
1 0.141297 0.158801 0.00130617 0.00469049 -0.00270367 0.180095 0.00125 45
1 0.0990048 0.203393 0.00162012 0.00119919 -0.000637493 -0.0908754 0.00125 46
1 0.364376 0.0308128 0.00143125 -0.00630316 -0.0016803 0.239494 0.00125 47
1 0.136077 0.470489 0.00129978 0.00264412 -0.00207383 -0.234228 0.00125 48
1 0.52327 0.600087 0.00148533 0.00358198 0.0219568 -0.23992 0.00125 49
1 0.0284792 0.0380455 0.00248448 -0.0126595 0.00589553 -0.0353955 0.00125 50
1 0.668446 0.311597 0.00129619 0.0090453 0.0140493 0.158905 0.00125 51
1 0.0821758 0.0882724 0.00123206 -0.00312363 -0.00431712 0.0519716 0.00125 52
1 0.268013 0.617296 0.00233374 -0.0072019 -0.00826873 -0.0256874 0.00125 53
1 0.310369 0.0190335 0.00126569 0.000816256 -0.00826788 0.219792 0.00125 54
1 0.725585 0.721248 0.00125675 0.00643166 0.00558311 -0.230683 0.00125 55
1 0.21503 0.717728 0.00244392 0.000242478 -0.0110707 -0.0339704 0.00125 56
1 0.125301 0.240473 0.00207634 -0.0211483 0.00517236 -0.0576599 0.00125 57
1 0.233677 0.456934 0.00192809 0.00170964 -0.000236272 -0.0162424 0.00125 58
1 0.384279 0.685681 0.00137571 -0.00941702 0.017169 -0.237564 0.00125 59
1 0.388934 0.211613 0.00159481 0.00974221 -0.0098533 -0.245533 0.00125 60
1 0.2603 0.396242 0.00125765 -0.0154768 -0.00518858 -0.227558 0.00125 61
1 0.535029 0.204853 0.00161849 -0.0132873 -0.0170939 0.0915212 0.00125 62
1 0.393955 0.585637 0.00142531 5.77078e-05 0.00567445 -0.230281 0.00125 63
1 0.376253 0.552918 0.00141352 -0.0053822 0.0010181 -0.230255 0.00125 64
1 0.174499 0.130754 0.00148481 0.00819335 -0.00546942 -0.17715 0.00125 65
1 0.62899 0.370177 0.00129759 0.00166277 0.0091625 -0.24714 0.00125 66
1 0.22931 0.667762 0.00131279 0.00489772 -0.0150712 -0.205692 0.00125 67
1 0.0148162 0.143056 0.001354 -0.00093139 -0.00140945 -0.187316 0.00125 68
1 0.659353 0.575343 0.00126363 -0.00133484 0.0139535 -0.239755 0.00125 69
1 0.268173 0.272523 0.00171105 0.00224044 -0.0118494 0.103345 0.00125 70
1 0.139146 0.648186 0.00220231 -0.00917474 0.00416473 -0.0479062 0.00125 71
1 0.204058 0.385154 0.00125587 0.00944564 0.00884948 0.244226 0.00125 72
1 0.229641 0.548136 0.00123655 -0.00247696 0.000794713 -0.27675 0.00125 73
1 0.648542 0.276737 0.00164474 0.00262379 -0.00359405 0.212123 0.00125 74
1 0.537539 0.0652324 0.00227577 -0.0091389 0.00423691 -0.0484146 0.00125 75
1 0.674588 0.232336 0.00139922 0.000824736 0.00301218 -0.2413 0.00125 76
1 0.154673 0.0450529 0.00127275 0.000568904 -0.00176934 0.240821 0.00125 77
1 0.161208 0.412911 0.0014121 -0.00383433 0.0017222 0.140955 0.00125 78
1 0.410322 0.373245 0.00135327 -0.0026815 -0.00966359 0.18672 0.00125 79
1 0.332708 0.495955 0.00153433 -0.00158542 0.016224 -0.175828 0.00125 80
1 0.17568 0.289297 0.00124097 0.00110648 0.0108326 0.187521 0.00125 81
1 0.42219 0.168529 0.00157508 0.0278581 0.00762315 0.141003 0.00125 82
1 0.269489 0.388291 0.00154353 -0.00489405 -0.00820812 -0.193612 0.00125 83
1 0.1663 0.359148 0.0014217 -0.0108243 -0.0103228 -0.240906 0.00125 84
1 0.111647 0.429187 0.00138232 -0.0229114 -0.0107077 -0.224476 0.00125 85
1 0.177122 0.520681 0.00181109 -0.0155689 0.00234501 -0.2174 0.00125 86
1 0.478958 0.637755 0.00131751 0.0193105 0.00461031 0.165342 0.00125 87
1 0.307035 0.523811 0.00173019 0.00127829 -0.00362251 0.107514 0.00125 88
1 0.271175 0.0452777 0.00195213 0.00603931 0.0138086 -0.0623828 0.00125 89
1 0.343764 0.668785 0.0012566 -0.000121591 -0.00308442 -0.228554 0.00125 90
1 0.316406 0.00996893 0.00130126 -0.0209394 -0.000154069 0.167145 0.00125 91
1 0.427595 0.371402 0.00191434 0.0125716 0.00707355 -0.0265381 0.00125 92
1 0.589061 0.302487 0.00158936 0.000939583 -0.00137812 -0.0930671 0.00125 93
1 0.2247 0.0366757 0.00186346 0.00292723 -0.0150679 -0.0304402 0.00125 94
1 0.278755 0.350606 0.00133741 -0.00793236 -0.00416015 0.169211 0.00125 95
1 0.681205 0.603542 0.00123396 0.00241803 0.000101275 -0.145179 0.00125 96
1 0.48897 0.205278 0.00138034 0.0051696 0.0133535 -0.22865 0.00125 97
1 0.526642 0.24397 0.00127071 0.00761926 -0.012754 0.190426 0.00125 98
1 0.0525024 0.0481363 0.00216986 -0.00551895 0.0076939 -0.0546271 0.00125 99
1 0.239619 0.36272 0.00209061 -0.0031802 -0.00118984 -0.041854 0.00125 100
1 0.0223619 0.572093 0.00124005 -0.00753795 -0.00132159 0.183369 0.00125 101
1 0.495198 0.327043 0.00142409 0.00086416 -0.00114958 0.217653 0.00125 102
1 0.309925 0.204706 0.00151682 0.00877608 0.00678114 -0.242947 0.00125 103
1 0.0209812 0.290074 0.00221623 0.0012303 -0.00198394 -0.180757 0.00125 104
1 0.0010485 0.383334 0.00134334 -0.0047724 -0.000642766 -0.20192 0.00125 105
1 0.549359 0.00874571 0.00138376 0.00977491 -0.0105342 -0.238498 0.00125 106
1 0.00111442 0.523504 0.00155216 -0.00105191 0.00288718 -0.187659 0.00125 107
1 0.073655 0.167805 0.00168093 0.0103161 0.00657346 -0.0862845 0.00125 108
1 0.728133 0.274759 0.00133582 0.00130802 -0.00481037 -0.241526 0.00125 109
1 0.550948 0.387183 0.00132049 0.000784943 0.00276185 0.26517 0.00125 110
1 0.687709 0.47862 0.00221638 0.00899978 0.0143275 0.0160132 0.00125 111
1 0.277512 0.701034 0.00230939 -0.00450943 0.000233811 -0.132434 0.00125 112
1 0.370796 0.496945 0.0022214 0.00421034 0.0088552 -0.046022 0.00125 113
1 0.323236 0.653896 0.00144577 -0.0155096 -0.00279247 0.228525 0.00125 114
1 0.293472 0.394365 0.00233512 0.00366982 -0.0125249 -0.0458561 0.00125 115
1 0.47816 0.212076 0.00141757 -0.0108751 -0.0176923 -0.23098 0.00125 116
1 0.387985 0.533907 0.00176575 0.00346628 -0.00165821 -0.220499 0.00125 117
1 0.264095 0.399107 0.00185855 0.00771157 0.0139311 -0.0717824 0.00125 118
1 0.362638 0.671775 0.00126207 0.00910465 -0.00106952 -0.230537 0.00125 119
1 0.575375 0.084383 0.0013278 0.01426 0.0335315 -0.249085 0.00125 120
1 0.203904 0.0447029 0.00220036 0.0212323 0.0335081 -0.068932 0.00125 121
1 0.0994518 0.235605 0.00183782 0.00378146 -0.00295175 -0.0814713 0.00125 122
1 0.289232 0.52016 0.00141212 -0.0192895 -0.00539068 -0.237969 0.00125 123
1 0.694025 0.123243 0.00143346 -0.00128194 0.00160334 0.122437 0.00125 124
1 0.502029 0.280341 0.00206231 0.00211681 0.015283 -0.180152 0.00125 125
1 0.124726 0.13078 0.0016978 -0.0122994 0.00279869 0.0877107 0.00125 126
1 0.132474 0.340927 0.00132348 0.00779549 0.00358537 -0.237169 0.00125 127
1 0.418971 0.404634 0.00128628 0.00307382 0.00948241 0.260973 0.00125 128
1 0.626881 0.431618 0.00128508 -0.000644028 -0.00608336 -0.287724 0.00125 129
1 0.239375 0.586076 0.00135457 -0.00608052 0.0130909 -0.237079 0.00125 130
1 0.504386 0.00435457 0.00139243 0.00419658 -0.00306216 -0.101282 0.00125 131
1 0.483401 0.0118088 0.00147647 0.00571487 0.00199601 0.0795426 0.00125 132
1 0.0997498 0.0294314 0.00136517 0.00783504 -0.000489296 0.238974 0.00125 133
1 0.431745 0.615795 0.00123475 0.000571718 0.000492243 -0.143549 0.00125 134
1 0.125177 0.405514 0.00130767 0.0164417 -0.0110671 -0.111454 0.00125 135
1 0.578018 0.315123 0.00218462 0.000643153 -0.00193857 0.0139719 0.00125 136
1 0.339194 0.528393 0.00150895 0.00989754 0.0203747 -0.229297 0.00125 137
1 0.614712 0.497858 0.00183296 -0.00415236 -0.00882349 -0.24998 0.00125 138
1 0.00612898 0.0980263 0.00174215 -0.000931048 0.000608119 -0.089603 0.00125 139
1 0.237094 0.286208 0.0012302 0.0127859 -0.00223516 0.0187778 0.00125 140
1 0.638767 0.312338 0.00176066 -0.00286779 -0.00100788 0.107684 0.00125 141
1 0.492325 0.0745393 0.0013946 -0.000299092 -0.00409326 -0.237135 0.00125 142
1 0.618689 0.139509 0.00168661 0.00878434 -0.00401916 -0.0865248 0.00125 143
1 0.0880387 0.543889 0.00124544 0.00225728 -0.013133 -0.224924 0.00125 144
1 0.270186 0.450447 0.00231242 -0.0153587 0.00385835 -0.0462669 0.00125 145
1 0.690878 0.590296 0.00141197 -0.0105225 -0.00916783 0.175758 0.00125 146
1 0.329438 0.696146 0.00123024 -0.00512491 -0.00894304 -0.0247582 0.00125 147
1 0.587726 0.623775 0.00224641 0.000389364 -0.000728229 -0.167415 0.00125 148
1 0.62886 0.541036 0.00143254 -0.00339638 0.000545764 0.138228 0.00125 149
1 0.440404 0.4096 0.00189834 -0.000699985 0.000827737 -0.0726353 0.00125 150
1 0.353009 0.571623 0.00208844 -0.00308282 0.000401743 0.00615867 0.00125 151
1 0.266904 0.275437 0.0013171 0.000364168 0.00349428 0.180394 0.00125 152
1 0.476414 0.332569 0.00185547 -9.5076e-05 -0.00874099 -0.210325 0.00125 153
1 0.445837 0.27829 0.00165671 -0.00169598 -0.00167112 0.0561725 0.00125 154
1 0.3637 0.520658 0.0015869 0.00397322 -0.0152206 -0.180717 0.00125 155
1 0.0532492 0.40171 0.00211346 -0.00263617 -0.00775807 -0.0587504 0.00125 156
1 0.122343 0.182013 0.001354 -0.00466163 -0.00917952 0.18692 0.00125 157
1 0.187429 0.540412 0.00132624 0.00716872 0.000115056 -0.235361 0.00125 158
1 0.204134 0.400908 0.00176056 0.00327656 -0.0153954 -0.262647 0.00125 159
1 0.0515332 0.324374 0.00134541 -0.0153599 -0.0124075 -0.226137 0.00125 160
1 0.1588 0.240588 0.0020717 0.018471 0.0169539 -0.174649 0.00125 161
1 0.234491 0.32488 0.00124263 0.0125553 -0.00127775 0.195546 0.00125 162
1 0.235093 0.557424 0.00193406 0.0108439 0.0137804 -0.0701717 0.00125 163
1 0.345738 0.133386 0.00133899 -0.0096973 0.00651195 0.196375 0.00125 164
1 0.151383 0.475537 0.00158717 -0.00700177 0.00879334 0.143617 0.00125 165
1 0.14415 0.690441 0.00148355 0.0127913 -0.000658743 -0.296654 0.00125 166
1 0.201944 0.686184 0.00146496 -0.00512452 -0.00772532 0.127483 0.00125 167
1 0.266001 0.668401 0.00147737 0.00472441 0.00367382 0.0793789 0.00125 168
1 0.325593 0.370467 0.00143614 0.00127839 0.016246 0.217521 0.00125 169
1 0.0443611 0.497845 0.00178407 0.00747679 -0.0115694 -0.214797 0.00125 170
1 0.724844 0.376356 0.00176075 0.00547326 -0.00579954 0.0794155 0.00125 171
1 0.136392 0.223955 0.00143846 -0.0045361 0.00153501 -0.244737 0.00125 172
1 0.0586958 0.0362748 0.00129357 0.00939588 -0.0143108 -0.235212 0.00125 173
1 0.232662 0.422702 0.0023203 -0.0100892 0.00221296 -0.121976 0.00125 174
1 0.530771 0.169878 0.00183293 0.015555 -0.00255097 -0.253932 0.00125 175
1 0.226525 0.0844118 0.00128918 -0.00981178 0.0102647 0.189747 0.00125 176
1 0.284092 0.319185 0.00150909 0.00262201 -0.00115452 0.116475 0.00125 177
1 0.334752 0.464684 0.00138107 0.0148957 -0.00410974 -0.312116 0.00125 178
1 0.423463 0.0945872 0.00144916 -0.00328045 -0.00657143 0.0997692 0.00125 179
1 0.619691 0.119469 0.00190934 -0.00639262 -0.0042856 -0.0704569 0.00125 180
1 0.241511 0.710517 0.00132967 0.0053502 -0.0113209 0.17194 0.00125 181
1 0.54908 0.549325 0.00163843 -0.00763705 0.00706268 -0.0877021 0.00125 182
1 0.682785 0.347463 0.00171575 0.00443542 -0.00246941 -0.0836894 0.00125 183
1 0.660192 0.0498908 0.00207535 -0.0505229 0.0323871 -0.0502629 0.00125 184
1 0.341743 0.361227 0.001549 -0.00780688 -0.000240498 -0.229699 0.00125 185
1 0.273985 0.100775 0.00127533 0.000929985 0.0109194 -0.247871 0.00125 186
1 0.23134 0.207356 0.00134737 0.00424761 0.00217027 0.241787 0.00125 187
1 0.00315248 0.583402 0.00152761 0.00114797 -0.0143363 0.0900278 0.00125 188
1 0.655306 0.545646 0.00133647 -0.016749 0.00634895 -0.225178 0.00125 189
1 0.446081 0.411472 0.00175671 -0.00361511 0.0134039 -0.04066 0.00125 190
1 0.708819 0.552286 0.00174203 -0.000605028 0.0040305 -0.219209 0.00125 191
1 0.594091 0.415676 0.00142826 0.000457991 -0.00211087 -0.247279 0.00125 192
1 0.159764 0.0937292 0.00160291 -0.00159941 0.0121733 -0.27004 0.00125 193
1 0.12858 0.287209 0.00134979 0.0137707 0.0168387 0.256769 0.00125 194
1 0.624254 0.0352175 0.00171485 0.00389199 -0.00458399 -0.197208 0.00125 195
1 0.335794 0.245206 0.0012902 0.00816488 0.00573551 -0.305017 0.00125 196
1 0.17697 0.239548 0.00166928 0.0150765 -0.00587824 0.057766 0.00125 197
1 0.692801 0.170069 0.00177895 0.0128454 0.00205873 0.0878026 0.00125 198
1 0.49314 0.300618 0.00125434 -0.00542661 -0.00538016 0.195313 0.00125 199
1 0.710968 0.245945 0.00138097 0.00271874 0.00203561 0.226495 0.00125 200
1 0.103972 0.133876 0.00201599 0.00316982 -0.00801621 -0.223609 0.00125 201
1 0.408184 0.535736 0.00128432 -0.000908296 -0.00441712 -0.223908 0.00125 202
1 0.436052 0.537719 0.00130334 -0.0156022 -0.00836641 -0.240341 0.00125 203
1 0.0360398 0.549566 0.00237085 0.000553508 0.00592798 -0.0412883 0.00125 204
1 0.0778846 0.724442 0.00136297 -0.00106878 -0.011534 -0.238355 0.00125 205
1 0.413881 0.156004 0.00202438 -0.00280649 -0.00393131 -0.0635346 0.00125 206
1 0.220464 0.211002 0.00126099 0.00194246 0.00326792 -0.0598847 0.00125 207
1 0.598983 0.479305 0.00133179 -0.00107063 0.00481723 -0.240424 0.00125 208
1 0.131527 0.49661 0.00175348 -0.00137456 -0.0150043 0.113965 0.00125 209
1 0.154187 0.0293499 0.00173197 0.00936155 0.0218215 0.0761639 0.00125 210
1 0.42577 0.385889 0.00233404 0.00876805 -0.000429501 -0.0618168 0.00125 211
1 0.356637 0.124915 0.00127985 -0.0133896 -0.0121814 -0.307106 0.00125 212
1 0.363075 0.499301 0.00124132 0.00113626 -0.000697028 -0.20435 0.00125 213
1 0.499292 0.441254 0.00138274 0.00299221 0.000874987 0.2235 0.00125 214
1 0.145775 0.495336 0.00146232 0.00653626 -0.000193449 -0.177962 0.00125 215
1 0.418996 0.627087 0.00165147 -0.00425551 -0.00260866 0.102865 0.00125 216
1 0.596798 0.207115 0.00127005 -0.00294524 0.00835868 0.274409 0.00125 217
1 0.225898 0.130191 0.00123955 -0.0010682 -0.000600625 -0.282326 0.00125 218
1 0.263597 0.211725 0.00128418 -0.00821137 0.000231616 -0.233895 0.00125 219
1 0.121084 0.665578 0.00142675 -0.00367754 -0.00614085 0.167911 0.00125 220
1 0.0282256 0.71244 0.00157505 -0.00267871 0.00923606 -0.183288 0.00125 221
1 0.35141 0.186651 0.0014476 -0.0061742 -0.0020197 -0.107843 0.00125 222
1 0.00613063 0.282213 0.00127652 -0.00714436 0.00166963 -0.240382 0.00125 223
1 0.631006 0.066974 0.00173137 0.000442659 -0.00156696 0.104984 0.00125 224
1 0.534785 0.215096 0.00125075 0.00242265 0.00622869 0.196211 0.00125 225
1 0.333507 0.505406 0.0021742 0.000232512 -0.00016949 -0.158644 0.00125 226
1 0.26151 0.155901 0.00183449 -0.000207096 0.00219458 -0.251664 0.00125 227
1 0.731339 0.345622 0.00140858 -0.00319046 0.00134012 0.218829 0.00125 228
1 0.616914 0.337486 0.00141807 0.0026559 0.000427653 0.219689 0.00125 229
1 0.144278 0.240177 0.00123516 -0.00840165 -0.0069588 -0.22728 0.00125 230
1 0.0833427 0.564418 0.00174077 -0.00458868 -0.00102815 -0.184265 0.00125 231
1 0.682494 0.662354 0.00135331 0.0122515 0.00854035 0.165166 0.00125 232
1 0.701349 0.361651 0.00213294 -0.033049 -0.0155583 -0.0679667 0.00125 233
1 0.318371 0.184481 0.00152688 -0.012013 -0.0148828 -0.230331 0.00125 234
1 0.294662 0.144934 0.00177434 0.000379531 0.00324762 0.134786 0.00125 235
1 0.0938798 0.251839 0.00140028 -0.00273191 -0.00359742 0.246397 0.00125 236
1 0.463538 0.0459839 0.00125737 0.011262 -0.00343209 0.172055 0.00125 237
1 0.656614 0.143593 0.00179683 0.00983271 -0.00529268 0.0943203 0.00125 238
1 0.217024 0.23488 0.00137605 -0.00242653 -0.00135918 0.181438 0.00125 239
1 0.324989 0.271405 0.00170753 0.000687116 -0.00236377 0.098994 0.00125 240
1 0.683773 0.721261 0.00159952 0.00199152 -0.000361078 -0.17494 0.00125 241
1 0.71877 0.67974 0.0019325 0.00767257 0.00206501 -0.0689249 0.00125 242
1 0.401969 0.499418 0.00162762 0.00252239 0.00191197 0.0913845 0.00125 243
1 0.146625 0.248836 0.00150205 -0.00771443 0.000274837 0.11793 0.00125 244
1 0.130996 0.390868 0.00127365 -0.000502207 0.0054479 0.176883 0.00125 245
1 0.608732 0.451224 0.00159851 -0.00408817 0.00143099 0.0941589 0.00125 246
1 0.298973 0.652158 0.00158353 0.00119746 0.0216506 -0.232779 0.00125 247
1 0.338761 0.540295 0.00144627 0.0031347 0.00137224 0.129327 0.00125 248
1 0.0384064 0.27263 0.00129946 -0.0110993 -0.000511396 0.181752 0.00125 249
1 0.733991 0.672373 0.00150864 -0.00242394 0.000619849 -0.227217 0.00125 250
1 0.18713 0.562796 0.0012415 -0.00370505 -0.000430039 0.187602 0.00125 251
1 0.388537 0.364782 0.00137981 -0.00349552 0.00315963 0.185611 0.00125 252
1 0.10085 0.418979 0.00181984 -0.00321308 -0.00229087 -0.164229 0.00125 253
1 0.658391 0.524047 0.0013132 -0.00738672 -0.00419044 0.196319 0.00125 254
1 0.0284951 0.198928 0.00158567 -0.0125392 0.00280747 -0.179997 0.00125 255
1 0.12066 0.466781 0.00153479 -0.0141918 -0.0103747 -0.185404 0.00125 256
1 0.401213 0.228447 0.00179022 0.0250033 -0.00845723 -0.170084 0.00125 257
1 0.634109 0.0620721 0.00239441 0.0130244 -0.0125916 -0.0955891 0.00125 258
1 0.340308 0.312858 0.00136448 -0.00558942 0.00309758 -0.251782 0.00125 259
1 0.20289 0.236105 0.00130789 -0.0131869 0.00521925 -0.233741 0.00125 260
1 0.334566 0.195844 0.00131306 -0.00281349 -0.0023886 0.161665 0.00125 261
1 0.398513 0.692527 0.00188174 0.00144439 -0.00257493 -0.0835433 0.00125 262
1 0.296443 0.567681 0.00137472 -0.00660395 -0.019778 -0.222592 0.00125 263
1 0.130478 0.0594903 0.00223426 -0.000346809 -0.0194657 -0.175546 0.00125 264
1 0.657025 0.711437 0.00226461 0.00306287 0.00379037 -0.0448806 0.00125 265
1 0.272405 0.43918 0.00140075 -0.00122781 0.00670082 0.148777 0.00125 266
1 0.446802 0.195707 0.00144381 -0.00780496 0.018674 0.23146 0.00125 267
1 0.592837 0.133716 0.00133122 0.00220363 -0.0153436 -0.204824 0.00125 268
1 0.659291 0.275364 0.00136947 -0.00887598 0.00493432 0.18504 0.00125 269
1 0.428997 0.0949162 0.001416 0.0109875 0.0156766 0.139812 0.00125 270
1 0.358539 0.693609 0.00134392 0.00159864 -0.000642668 0.195856 0.00125 271
1 0.692177 0.217953 0.00183403 0.00845149 -0.000787165 -0.0876162 0.00125 272
1 0.26391 0.483596 0.0015065 -0.000411686 -0.0193938 0.201967 0.00125 273
1 0.66573 0.319576 0.0014924 0.010804 -0.00881082 0.117346 0.00125 274
1 0.270792 0.422402 0.00191255 -0.0116256 0.00583239 -0.0659773 0.00125 275
1 0.678633 0.166603 0.00143293 0.0175317 -0.00374988 0.153547 0.00125 276
1 0.349511 0.337065 0.0015668 -0.000664438 0.0029219 -0.177076 0.00125 277
1 0.730079 0.459375 0.00133619 0.00372703 0.000707113 -0.240535 0.00125 278
1 0.630138 0.500568 0.0021145 0.0158606 0.00166124 0.00844852 0.00125 279
1 0.140831 0.624905 0.00136268 -0.00300473 0.00220921 0.189879 0.00125 280
1 0.203601 0.222889 0.00135549 0.00651735 0.00539887 -0.2031 0.00125 281
1 0.710136 0.584369 0.00206589 0.00247821 0.0212873 -0.0606641 0.00125 282
1 0.2886 0.0514159 0.00134761 -0.0064533 0.00694839 -0.237109 0.00125 283
1 0.210695 0.453837 0.00211441 0.00178072 0.00950382 0.00838549 0.00125 284
1 0.376638 0.607411 0.00135398 -0.00417467 -0.00696022 0.167818 0.00125 285
1 0.194515 0.278021 0.00131818 -0.00532152 -0.0120554 0.233812 0.00125 286
1 0.718115 0.297913 0.00153833 0.00846365 0.00313096 0.107673 0.00125 287
1 0.200234 0.464089 0.00135152 0.0051214 -0.00646612 0.167192 0.00125 288
1 0.198547 0.536939 0.0012346 -0.00408397 0.00488191 -0.14123 0.00125 289
1 0.611572 0.447173 0.00133617 0.000675441 0.00443213 -0.189059 0.00125 290
1 0.288849 0.721885 0.00126771 -0.0175743 0.000448299 -0.231243 0.00125 291
1 0.707665 0.147257 0.00143981 -0.000219578 -0.00291319 -0.239199 0.00125 292
1 0.488743 0.462314 0.00139852 0.00544023 -0.00059962 0.216149 0.00125 293
1 0.369772 0.266855 0.00232539 0.00260931 0.00523816 -0.128797 0.00125 294
1 0.713066 0.575893 0.00153035 0.00394192 -0.00384286 -0.237808 0.00125 295
1 0.608377 0.542273 0.00179386 -0.00755859 -0.00815404 -0.259869 0.00125 296
1 0.31618 0.343912 0.00129794 0.00096266 -0.000427756 -0.241309 0.00125 297
1 0.307267 0.270399 0.00131826 0.0114222 0.00281841 0.265664 0.00125 298
1 0.379404 0.559105 0.0012295 0.00102855 -0.000108144 0.064437 0.00125 299
1 0.480822 0.438093 0.00185463 0.00418729 -0.00519204 -0.0313498 0.00125 300
1 0.254466 0.326081 0.0013519 -0.00342342 0.00526774 0.169612 0.00125 301
1 0.697017 0.307609 0.00138451 -0.010509 0.0122145 0.183431 0.00125 302
1 0.0385611 0.0846474 0.0017686 0.0197886 -0.00763117 -0.220884 0.00125 303
1 0.072556 0.0961593 0.00123544 -0.00477707 -0.00539336 -0.253645 0.00125 304
1 0.0889944 0.229549 0.00130469 0.00342446 0.0114398 -0.233969 0.00125 305
1 0.435126 0.717313 0.00144885 -0.00441208 -0.00402947 0.238847 0.00125 306
1 0.163978 0.447244 0.001658 -0.00284086 -0.000430827 -0.226758 0.00125 307
1 0.502298 0.472315 0.00124028 -0.00605131 -0.00142265 -0.214524 0.00125 308
1 0.429733 0.230962 0.0013238 0.0127775 -0.0184862 -0.23604 0.00125 309
1 0.443758 0.295085 0.00176859 -0.000165543 0.00209416 -0.0805024 0.00125 310
1 0.290523 0.147611 0.00134819 -0.012451 -0.00831512 0.185617 0.00125 311
1 0.583018 0.272228 0.00157948 0.00491963 -0.000537633 -0.182248 0.00125 312
1 0.299678 0.499986 0.00136178 -0.00850941 -0.00390317 0.23096 0.00125 313
1 0.226405 0.572638 0.00144908 -0.0108799 -0.0103017 -0.237996 0.00125 314
1 0.716568 0.563197 0.00143411 0.0028324 -0.0104878 0.170773 0.00125 315
1 0.116808 0.533672 0.00126144 -0.000351009 0.00819915 -0.230819 0.00125 316
1 0.576664 0.0668847 0.00174277 0.0139824 -0.000832618 -0.0809021 0.00125 317
1 0.144225 0.481232 0.00225748 0.000187996 0.00705195 -0.0496884 0.00125 318
1 0.0759827 0.00730761 0.00172234 0.00515354 -0.000689097 -0.0851937 0.00125 319
1 0.701096 0.266436 0.00141407 -0.00120519 -0.0208261 -0.199425 0.00125 320
1 0.555983 0.197786 0.00135326 0.00280821 -0.000809446 0.190416 0.00125 321
1 0.159026 0.355735 0.00137834 0.00236159 -0.00100179 -0.241749 0.00125 322
1 0.0354981 0.572245 0.00141559 0.0322071 0.00323267 0.136475 0.00125 323
1 0.551657 0.68955 0.00158734 -0.00334918 0.000482188 -0.104066 0.00125 324
1 0.0278682 0.274668 0.0016875 0.00174786 -0.00257897 0.0980267 0.00125 325
1 0.525871 0.226855 0.00175437 0.000175134 0.000483755 0.110986 0.00125 326
1 0.372323 0.716006 0.00199417 0.000432791 0.00190414 -0.191383 0.00125 327
1 0.0960014 0.253943 0.00124925 -0.00769849 -0.0173921 -0.229732 0.00125 328
1 0.538031 0.623234 0.00132656 -0.0154019 0.024421 -0.204678 0.00125 329
1 0.533239 0.609322 0.00179444 0.00752847 -0.00332078 0.116354 0.00125 330
1 0.607127 0.67502 0.00139288 -0.00277053 0.000564417 0.179835 0.00125 331
1 0.681973 0.13455 0.00250667 -0.00206508 0.00520928 -0.0117965 0.00125 332
1 0.176674 0.368003 0.00143826 -0.000156974 -0.0050918 -0.198488 0.00125 333
1 0.618524 0.135721 0.00126279 0.0053209 0.00249462 -0.031325 0.00125 334
1 0.466177 0.389205 0.00228385 0.00428006 -0.000667739 -0.13433 0.00125 335
1 0.300859 0.611524 0.00126963 0.00725941 0.00455233 0.207227 0.00125 336
1 0.662967 0.0484806 0.00172548 0.0339292 -0.024123 -0.194783 0.00125 337
1 0.475987 0.578226 0.00167095 -0.00348243 -0.000483072 0.0941774 0.00125 338
1 0.441011 0.569505 0.00181845 0.0178917 0.0105136 -0.256181 0.00125 339
1 0.543616 0.109581 0.00149769 -0.00355491 -0.00668654 -0.0633494 0.00125 340
1 0.68756 0.175466 0.0012947 -0.00924166 0.00643539 0.188375 0.00125 341
1 0.121931 0.238441 0.00143958 0.00851942 -8.80127e-06 0.219874 0.00125 342
1 0.544727 0.65554 0.00178941 -0.00560996 -0.00537863 0.15499 0.00125 343
1 0.62776 0.10849 0.0022161 -0.0132034 -0.00142073 -0.0515086 0.00125 344
1 0.114664 0.102868 0.00234449 -0.00840071 0.00234627 -0.0226769 0.00125 345
1 0.485386 0.22005 0.00155266 -0.0104312 -0.00387833 -0.230808 0.00125 346
1 0.533026 0.316881 0.00142472 -0.00463153 0.00483496 0.227764 0.00125 347
1 0.120076 0.595908 0.00133544 -0.00890725 -0.00667909 -0.239511 0.00125 348
1 0.629149 0.391259 0.00123571 0.00146778 -0.00220066 -0.163625 0.00125 349
1 0.470605 0.564513 0.0015073 -0.0241159 -0.013309 -0.185736 0.00125 350
1 0.218938 0.246439 0.0015314 -0.0166287 0.00204466 -0.177111 0.00125 351
1 0.106306 0.681386 0.00172081 -0.00932653 0.005495 0.115273 0.00125 352
1 0.648075 0.60354 0.00230592 0.00154705 0.00382139 -0.123033 0.00125 353
1 0.326817 0.0449664 0.00177113 -0.00649023 0.00694677 -0.178798 0.00125 354
1 0.175382 0.677062 0.00127285 -0.0102276 0.00211027 -0.23678 0.00125 355
1 0.347856 0.307744 0.00124954 0.00860935 0.00301529 -0.27772 0.00125 356
1 0.512899 0.0797309 0.00133953 -0.00205014 -0.00658022 -0.240054 0.00125 357
1 0.446993 0.587753 0.00131364 -0.0106678 0.00327899 0.180866 0.00125 358
1 0.533193 0.105295 0.0014045 -0.000350076 -0.000139466 0.12063 0.00125 359
1 0.158799 0.697197 0.00133153 0.00145184 -0.0154853 0.174111 0.00125 360
1 0.43345 0.0505814 0.00176723 -0.00327986 -0.00026505 -0.0868735 0.00125 361
1 0.0425881 0.0210048 0.00137855 -0.007303 0.0126573 -0.238578 0.00125 362
1 0.626239 0.510435 0.00155456 -0.0180319 -0.00994243 0.0972713 0.00125 363
1 0.260307 0.331472 0.00154938 0.000425846 -0.00172586 -0.189306 0.00125 364
1 0.678617 0.284949 0.00146314 -0.00433664 0.0169393 0.0866004 0.00125 365
1 0.185563 0.690047 0.00173407 0.0057319 0.000283452 -0.155344 0.00125 366
1 0.0948532 0.270846 0.00190911 -0.0124532 0.0019083 -0.0680099 0.00125 367
1 0.521225 0.468521 0.00136419 0.00952 0.0150366 0.22162 0.00125 368
1 0.176418 0.357921 0.00153811 0.00166777 -0.00402131 0.107107 0.00125 369
1 0.238403 0.475557 0.00139562 0.00335794 0.0018243 -0.223676 0.00125 370
1 0.473484 0.352422 0.00123787 0.00767896 0.00180396 0.170674 0.00125 371
1 0.698836 0.439764 0.00148019 -0.00397763 0.0210919 0.208495 0.00125 372
1 0.593836 0.635113 0.00176269 0.000771906 0.00683535 0.124078 0.00125 373
1 0.460224 0.0963085 0.00154932 -0.00724781 0.0031284 0.102504 0.00125 374
1 0.172671 0.61713 0.00175598 0.00355385 0.0042729 -0.264695 0.00125 375
1 0.553631 0.497255 0.00123441 -0.00526038 -0.00326417 0.129453 0.00125 376
1 0.179623 0.63536 0.00174695 0.00947055 0.00770961 -0.22172 0.00125 377
1 0.183535 0.710614 0.00126561 -0.00101598 -0.00377041 -0.231465 0.00125 378
1 0.569856 0.569782 0.00127457 -0.00109483 0.00147035 0.189168 0.00125 379
1 0.651448 0.0849417 0.00148436 -0.00863597 -0.00808203 -0.239051 0.00125 380
1 0.219976 0.440206 0.00163397 -0.00580857 -0.000541646 -0.227302 0.00125 381
1 0.252254 0.218844 0.00172288 0.00653472 -0.0165422 -0.189802 0.00125 382
1 0.52316 0.000543182 0.00149165 -0.00453625 -0.00249363 -0.195644 0.00125 383
1 0.25151 0.406322 0.00122978 0.0114336 0.000230275 -0.00536439 0.00125 384
1 0.537682 0.305665 0.00132131 -0.00401825 -0.0162453 -0.239607 0.00125 385
1 0.0911899 0.488675 0.0019192 0.0180474 0.00199039 -0.202372 0.00125 386
1 0.418255 0.452677 0.00125676 0.0151627 -0.00263011 -0.227325 0.00125 387
1 0.284101 0.710488 0.0013548 0.00934571 -0.00271708 -0.234958 0.00125 388
1 0.236974 0.268044 0.00122542 -0.00593538 0.00409739 -0.0445707 0.00125 389
1 0.709664 0.0373204 0.00130584 -0.00349363 0.0015812 -0.234116 0.00125 390
1 0.599069 0.19202 0.00126996 -0.0040278 0.00124465 -0.302854 0.00125 391
1 0.0429916 0.700472 0.00170602 -0.00659523 0.0128015 -0.0866982 0.00125 392
1 0.561466 0.468231 0.00140328 -0.00521752 0.00103732 0.214037 0.00125 393
1 0.135584 0.0769901 0.00158763 0.0208167 0.002137 -0.180352 0.00125 394
1 0.381368 0.0807635 0.00133801 0.00481509 -0.0172506 -0.237008 0.00125 395
1 0.329285 0.39517 0.00157045 0.00266253 0.00105258 -0.235016 0.00125 396