ITEM: TIMESTEP
1000000
ITEM: NUMBER OF ATOMS
10000
ITEM: BOX BOUNDS pp pp ff
0.0000000000000000e+00 1.5666426712500001e+00
0.0000000000000000e+00 1.5666426712500001e+00
-1.2500000000000001e-02 1.2500000000000001e-02
ITEM: ATOMS type x y z vx vy vz radius id
1 0.73726 0.993366 0.00129578 0.000777091 0.000612741 -0.2382 0.00125 1
1 0.536068 0.348311 0.00126426 -0.000934436 0.0172357 0.197907 0.00125 2
1 1.23311 0.461765 0.00142576 -0.0013366 -0.000935552 -0.226458 0.00125 3
1 1.01044 0.57889 0.00177233 0.000431929 0.00849121 -0.265736 0.00125 4
1 1.44023 1.17017 0.0015188 0.00320862 0.000135819 0.0595037 0.00125 5
1 0.109774 0.0857502 0.00147376 0.00460601 -0.00508765 0.124619 0.00125 6
1 0.341208 0.457667 0.00125526 -2.14068e-05 -4.76385e-06 -0.236284 0.00125 7
1 1.30545 0.976545 0.00156754 0.00214418 -0.0096424 -0.184529 0.00125 8
1 1.23595 0.850849 0.00145804 0.00308623 -0.00340424 0.130211 0.00125 9
1 0.519809 0.402566 0.0012546 0.00235078 -0.000526572 -0.315479 0.00125 10
1 1.21613 0.69715 0.00205083 -3.55273e-05 0.000204837 -0.217801 0.00125 11
1 1.149 1.17705 0.00242403 -0.00101111 -0.000481189 -0.0387477 0.00125 12
1 0.330345 0.629769 0.00238596 -0.000145474 0.000581311 -0.0469917 0.00125 13
1 0.379644 0.81999 0.00220624 -0.00129744 3.40096e-05 -0.183773 0.00125 14
1 0.017349 1.54821 0.00206986 0.00128216 0.00118225 -0.179109 0.00125 15
1 0.634909 1.15474 0.00149908 -0.000362512 9.35482e-05 -0.196273 0.00125 16
1 0.0933055 0.927878 0.00164927 -0.0014774 0.000787498 0.205458 0.00125 17
1 0.598175 0.939729 0.00127991 0.00244754 -0.00177604 -0.157593 0.00125 18
1 0.308371 1.26175 0.0015286 -0.00204599 0.00170803 0.127237 0.00125 19
1 1.24965 1.32411 0.00165851 0.00621097 0.00326886 -0.091548 0.00125 20
1 0.169724 1.24206 0.00138454 -0.00137916 0.00349258 0.220093 0.00125 21
1 0.84847 0.626045 0.00141292 0.000479765 0.0018475 -0.239191 0.00125 22
1 1.32736 1.19523 0.00176106 -0.00244241 0.00282086 0.14719 0.00125 23
1 0.498356 0.346452 0.00127575 0.000587787 -0.00013076 -0.23121 0.00125 24
1 1.3116 0.582276 0.0022417 -0.00228184 -0.012363 -0.0501004 0.00125 25
1 1.19435 0.668408 0.00130955 -0.0033727 -0.000980609 0.235564 0.00125 26
1 0.062902 1.03306 0.00127764 -0.00420982 -0.00150232 -0.231049 0.00125 27
1 0.536046 1.51058 0.00147027 0.000653328 0.00638012 -0.19486 0.00125 28
1 0.914916 1.08927 0.00139533 0.00952004 -0.000521678 -0.239151 0.00125 29
1 1.08782 1.46366 0.00154536 0.00308362 0.00189634 0.103394 0.00125 30
1 1.05716 1.23427 0.00174842 -0.00189159 -0.00163268 0.163713 0.00125 31
1 0.656772 0.212995 0.00133085 -0.00268835 -0.00075213 0.168249 0.00125 32
1 0.212643 0.451143 0.00154503 0.00196601 0.00246948 0.102645 0.00125 33
1 1.27894 0.489893 0.00198673 -0.00242233 -0.00442272 -0.192425 0.00125 34
1 0.665108 1.51251 0.00200598 2.11799e-05 -0.000626875 -0.223771 0.00125 35
1 1.20449 1.438 0.00130866 0.0167601 -0.00878213 -0.23428 0.00125 36
1 1.09378 0.0500308 0.00176336 0.00510659 -0.00171152 -0.220714 0.00125 37
1 1.23202 0.676068 0.00135558 -0.00170566 0.00446848 0.186726 0.00125 38
1 0.289261 0.092306 0.00145196 -0.00519271 0.00569082 -0.198553 0.00125 39
1 0.516941 0.913324 0.00125355 0.000320876 -0.000566796 0.0716506 0.00125 40
1 0.444387 0.307076 0.00179681 0.00222422 -0.000978596 -0.0717142 0.00125 41
1 1.24682 1.07493 0.0024885 0.00231753 0.00183226 0.0369064 0.00125 42
1 0.450659 0.0308449 0.00133811 -0.00289471 0.000332431 -0.220686 0.00125 43
1 0.500278 1.34137 0.00130056 -0.00540232 -0.00220695 0.234838 0.00125 44
1 0.0605981 1.0188 0.00140707 -0.000352399 -0.000480458 0.132111 0.00125 45
1 0.242323 0.990197 0.00151609 -0.00442813 -0.000375805 0.204198 0.00125 46
1 0.96195 1.26094 0.00194103 0.00129864 0.00204218 -0.194759 0.00125 47
1 0.761867 0.491152 0.00236222 0.00199137 -0.0010972 -0.10566 0.00125 48
1 1.04153 1.33377 0.00127634 -0.00172228 -0.00186545 0.160759 0.00125 49
1 0.580358 0.750342 0.00151344 -0.00845416 -0.00816223 -0.251835 0.00125 50
1 0.342186 0.346273 0.00129351 0.00390591 -0.00098776 -0.284522 0.00125 51
1 0.649908 0.39048 0.00145998 -0.00102715 -0.000327196 0.121282 0.00125 52
1 0.303762 0.0198513 0.00135987 -0.00212459 -0.000676247 -0.299706 0.00125 53
1 1.05506 0.0698683 0.00139178 -0.00321248 0.00318458 0.220899 0.00125 54
1 0.396525 1.16715 0.00168094 -0.00171339 0.00745995 -0.228345 0.00125 55
1 1.48957 0.695748 0.0014738 0.00118999 0.000131303 -0.192995 0.00125 56
1 0.494866 0.660845 0.00128673 1.52142e-05 0.0119672 0.187209 0.00125 57
1 0.428128 1.25267 0.00130835 -0.0043627 -0.00824046 -0.0309451 0.00125 58
1 1.20195 0.0181629 0.00203172 0.00108876 0.000715989 -0.216854 0.00125 59
1 1.35723 1.31438 0.00250593 0.0049311 0.000611424 0.0381917 0.00125 60
1 0.280833 0.896428 0.00212798 -0.00851313 0.00343202 -0.0574089 0.00125 61
1 0.958436 0.901038 0.0015103 0.00312444 0.00642817 -0.193392 0.00125 62
1 0.277277 0.776825 0.00129494 -0.000637786 0.000786024 -0.223625 0.00125 63
1 0.727242 0.846528 0.00194285 -3.38611e-05 -0.00421872 -0.237079 0.00125 64
1 0.550001 1.16762 0.00133001 0.000130356 -0.000319461 -0.19599 0.00125 65
1 1.11729 1.39287 0.00122748 0.000549495 -0.00024969 0.124348 0.00125 66
1 0.169711 1.11208 0.0021981 0.000412464 0.00503219 -0.0534544 0.00125 67
1 0.769456 1.43035 0.00146518 -0.00322517 0.00508434 -0.181296 0.00125 68
1 0.0862386 0.936077 0.0022948 0.00188648 -0.0016292 -0.0289827 0.00125 69
1 0.489306 0.756582 0.00150188 0.00179645 0.00468292 0.0719894 0.00125 70
1 0.688964 0.801251 0.00149958 -0.0029329 0.00112561 -0.194941 0.00125 71
1 0.480647 1.35474 0.00165729 -0.00306063 0.00152054 0.0939076 0.00125 72
1 1.41658 0.222016 0.00125979 -0.00142242 0.000267348 0.00606604 0.00125 73
1 1.56533 0.86021 0.00203251 0.00850622 3.49498e-05 -0.175373 0.00125 74
1 0.97537 0.0556166 0.00145095 -0.00800395 0.000785458 0.16298 0.00125 75
1 0.441323 1.21658 0.00132669 -0.000768271 -0.0122582 0.174376 0.00125 76
1 0.823578 0.97281 0.0014295 -0.00282829 -0.00213945 -0.24535 0.00125 77
1 0.0521051 0.508796 0.00131557 0.00598144 0.00869685 -0.231418 0.00125 78
1 1.16518 0.786953 0.00133798 0.0069771 -0.00884748 0.140946 0.00125 79
1 0.563521 0.805443 0.00209986 -0.00265249 0.000480397 0.00710199 0.00125 80
1 1.07384 0.517931 0.00131084 -8.67942e-05 0.0029434 -0.247047 0.00125 81
1 1.38146 0.267836 0.0014049 0.00112147 0.0145343 0.113711 0.00125 82
1 0.523838 1.56219 0.001389 -0.0076615 0.0012873 0.221337 0.00125 83
1 1.24459 1.16034 0.00137266 -0.000433507 -0.00338992 0.186871 0.00125 84
1 0.215086 1.24621 0.00138908 -0.000541903 -0.000306526 0.181733 0.00125 85
1 0.479888 0.715411 0.00131258 -0.00249756 0.000205134 -0.248985 0.00125 86
1 0.686955 0.590392 0.00168882 0.00889493 -0.00318096 -0.0860199 0.00125 87
1 0.583389 0.719503 0.0015536 -0.0016933 -0.00819283 -0.187382 0.00125 88
1 1.4839 0.567361 0.0012702 0.00810169 0.00567589 0.210228 0.00125 89
1 0.539905 0.107276 0.00124968 -0.00619917 0.014362 0.197751 0.00125 90
1 1.06946 1.35991 0.0019572 0.00323796 -0.00568923 -0.234069 0.00125 91
1 0.253964 0.356542 0.00131484 0.0107504 -0.00241137 -0.238498 0.00125 92
1 0.0631832 1.39007 0.00231831 -0.00211079 0.000700974 -0.0633927 0.00125 93
1 0.0310222 1.54062 0.00155767 0.00142544 0.00215631 0.0647807 0.00125 94
1 1.5409 1.00955 0.00140371 0.000273892 -0.00321112 0.262303 0.00125 95
1 0.505565 1.19704 0.00150742 0.00607343 -0.00946586 -0.177747 0.00125 96
1 0.0960517 0.486561 0.00170707 0.00148245 -0.000457474 -0.271106 0.00125 97
1 1.34954 0.233846 0.0015333 0.00238641 -0.00402052 0.154633 0.00125 98
1 0.701957 1.42834 0.00135272 0.00541222 -0.00194097 -0.240387 0.00125 99
1 0.821668 0.442659 0.00132611 0.00217932 0.000886377 -0.235305 0.00125 100
1 1.13703 1.41431 0.00148969 -0.00258401 0.00233007 0.225167 0.00125 101
1 1.3641 0.876935 0.00137655 0.000353815 -0.000615788 0.176332 0.00125 102
1 0.299566 1.53802 0.00165499 -0.00180627 -0.00505435 -0.22471 0.00125 103
1 0.920366 1.56245 0.00222209 0.000560232 0.00249889 0.0131845 0.00125 104
1 1.28796 1.45308 0.00144208 -0.000940367 0.00166171 0.139459 0.00125 105
1 0.675362 1.16816 0.0013912 -0.00118013 -0.00302565 0.120465 0.00125 106
1 0.804046 0.589388 0.00155218 0.00115444 0.00137509 0.150621 0.00125 107
1 0.09381 0.354432 0.00158604 0.000136707 0.0052878 -0.0552954 0.00125 108
1 0.187006 0.558421 0.0017751 -0.00291821 0.00839444 0.0856731 0.00125 109
1 0.461663 0.911636 0.00173359 -0.00291352 -0.00296341 0.172898 0.00125 110
1 0.399683 0.326786 0.00139731 0.00126793 -0.00125507 -0.0590333 0.00125 111
1 0.139943 0.0541274 0.0013023 -0.0070463 0.000853784 0.199817 0.00125 112
1 0.248371 1.51173 0.00129814 -0.000367627 0.00113772 -0.247636 0.00125 113
1 1.19322 0.59526 0.00165837 -0.00132406 -0.000383322 -0.0896211 0.00125 114
1 1.33101 0.908161 0.00167815 -0.000558219 -0.00702892 0.0941865 0.00125 115
1 1.53792 0.0456176 0.00139461 0.00073554 0.000553144 0.154045 0.00125 116
1 0.479056 0.971562 0.00137215 -0.00206565 0.00279162 -0.200845 0.00125 117
1 0.984151 0.000720537 0.00165987 -0.000628171 0.0197097 -0.229947 0.00125 118
1 1.28897 0.168783 0.00145262 -0.0029752 0.0001342 -0.239525 0.00125 119
1 0.906407 1.25112 0.00218385 -0.00191172 -0.000223719 -0.0147766 0.00125 120
1 1.06065 0.192794 0.0015657 0.00118501 0.00114436 -0.230146 0.00125 121
1 1.36875 1.54275 0.00138225 -0.00320082 0.00144895 -0.238762 0.00125 122
1 1.0651 0.375769 0.00205565 -0.0025442 -0.00393573 -0.0617355 0.00125 123
1 0.989811 0.595548 0.00176869 -0.00142608 -8.3163e-05 -0.179351 0.00125 124
1 0.891657 0.936383 0.00201166 0.00720705 5.46457e-05 -0.0649344 0.00125 125
1 1.21031 0.624634 0.00123273 0.00184615 -0.00246476 0.111937 0.00125 126
1 0.972496 0.616025 0.00139505 0.00104106 0.00459991 0.24736 0.00125 127
1 0.221201 0.981931 0.00151315 0.000273593 0.00041558 0.203799 0.00125 128
1 0.99769 1.44265 0.00178208 -0.00923202 0.0070599 -0.218792 0.00125 129
1 0.739499 1.33954 0.00127919 0.00139976 0.00231033 0.116358 0.00125 130
1 0.786896 0.104943 0.00145984 -0.000344267 0.00165509 0.222181 0.00125 131
1 0.496684 0.41614 0.00140336 0.00282431 0.0041365 0.149554 0.00125 132
1 0.133152 0.926317 0.00124513 0.00205496 -0.000395105 -0.224467 0.00125 133
1 0.446023 1.55048 0.00197251 0.00328842 -0.00175461 -0.0671181 0.00125 134
1 0.0726807 1.05327 0.00139165 -0.00131786 -0.00143052 -0.239105 0.00125 135
1 0.811527 0.648394 0.0012772 -0.00524229 -0.00498624 -0.231848 0.00125 136
1 0.226807 1.48023 0.00146076 0.000434567 0.00062497 0.132736 0.00125 137
1 0.344448 1.0983 0.00138322 0.00434474 0.00214081 0.223126 0.00125 138
1 0.799621 0.123202 0.00144878 0.0171379 0.00409379 -0.240503 0.00125 139
1 0.884262 0.667673 0.00151922 -0.0111866 0.0121305 -0.244873 0.00125 140
1 0.290737 0.53469 0.00146454 -0.00547132 0.00239756 -0.238867 0.00125 141
1 1.47229 0.227566 0.00148993 0.00344274 -0.00188364 -0.238899 0.00125 142
1 0.36231 1.16098 0.00135705 0.00309841 0.000582331 0.190689 0.00125 143
1 1.56041 0.517484 0.00147465 0.0178035 -0.00553215 -0.180274 0.00125 144
1 0.0697512 1.23363 0.00152837 0.000491582 0.000224898 -0.19158 0.00125 145
1 0.957921 0.364145 0.00143886 0.00381795 0.00336013 0.228393 0.00125 146
1 0.355642 0.382405 0.00178907 0.0065283 0.000339956 -0.201162 0.00125 147
1 0.118129 0.620463 0.00123267 -7.89779e-05 4.15123e-05 -0.123263 0.00125 148
1 0.726557 0.227171 0.00133139 0.00356441 0.0042718 0.192997 0.00125 149
1 0.776656 1.22609 0.00153279 0.000546004 0.000590489 0.0587197 0.00125 150
1 0.873373 1.39766 0.00127176 -0.000694048 -0.0015001 0.161667 0.00125 151
1 1.55691 1.42694 0.00123495 0.00616162 -0.00856991 0.165877 0.00125 152
1 0.348619 1.52396 0.00143147 -0.00394728 0.00180776 0.23413 0.00125 153
1 1.02166 0.69789 0.00146321 -0.00303073 -0.00143298 -0.228875 0.00125 154
1 1.21632 1.37069 0.00134854 0.000766949 0.0114873 -0.234335 0.00125 155
1 0.482716 0.580804 0.00148974 -8.9826e-05 -0.00828247 0.103085 0.00125 156
1 0.941966 0.00603875 0.00130667 -0.0034747 0.00409415 0.179722 0.00125 157
1 0.299103 1.55691 0.00129745 -0.00474458 -0.00180473 0.23636 0.00125 158
1 0.670135 0.0978952 0.00230891 8.10985e-05 -0.00011288 -0.0457243 0.00125 159
1 0.863981 1.56535 0.00244832 0.00607773 -0.00374396 -0.072354 0.00125 160
1 0.325395 0.798645 0.0012356 0.000320171 -0.000139834 0.125685 0.00125 161
1 0.693969 0.561411 0.00129596 0.00189334 -0.00351672 -0.232667 0.00125 162
1 1.37495 0.449545 0.00180175 0.000909464 0.00297363 0.095617 0.00125 163
1 1.34257 1.54503 0.00162068 -0.00254131 -0.00617129 0.0504704 0.00125 164
1 0.914159 0.720926 0.00133359 -0.00108476 -0.00285249 -0.236346 0.00125 165
1 1.02224 0.0412215 0.0012546 0.00297758 -0.00057505 -0.236362 0.00125 166
1 1.20958 1.36282 0.00195737 0.00178117 -0.00296859 -0.23654 0.00125 167
1 0.249804 1.01339 0.00128111 0.0061455 0.000973398 0.172444 0.00125 168
1 0.845183 0.60217 0.00176878 -0.00152951 -0.000439957 0.142268 0.00125 169
1 0.625641 0.778826 0.00143892 0.00130252 0.000114449 -0.198611 0.00125 170
1 1.22486 1.03874 0.00128677 -0.00367854 0.00152981 -0.229397 0.00125 171
1 0.17897 0.276325 0.00201326 0.00372877 -0.0025768 -0.0637665 0.00125 172
1 0.370584 0.998535 0.00178882 -0.000737021 -0.000269067 0.0899642 0.00125 173
1 0.419675 1.37838 0.00141225 0.000181029 0.0043048 0.237434 0.00125 174
1 1.13418 0.61227 0.00175139 2.75042e-05 -2.97693e-05 -0.0827284 0.00125 175
1 0.581386 0.650617 0.00158157 -0.00219086 -0.00232256 0.135198 0.00125 176
1 0.839656 1.37045 0.0014015 0.00281406 -0.000750412 0.246595 0.00125 177
1 0.262678 0.444972 0.0024429 -0.00214823 -0.00399005 -0.0256746 0.00125 178
1 1.11615 1.27891 0.00139814 0.000360183 -2.41262e-05 -0.23768 0.00125 179
1 0.952131 0.442854 0.00129758 -0.00381086 -0.00365331 -0.191393 0.00125 180
1 1.49553 1.17022 0.00148486 -0.000720718 0.000382757 -0.239358 0.00125 181
1 0.54682 0.0556083 0.00175424 0.00145193 0.00372644 -0.218664 0.00125 182
1 0.0663031 0.550573 0.00128871 -0.000383853 0.00322059 0.237159 0.00125 183
1 0.903208 1.1861 0.00153701 0.00443679 0.00198696 0.105626 0.00125 184
1 0.369184 1.42072 0.00161721 -0.00728985 -0.00171426 -0.229151 0.00125 185
1 0.597966 0.330697 0.00150635 0.00187255 0.000445838 0.098294 0.00125 186
1 1.46177 1.03784 0.00155176 -7.4956e-05 -1.74714e-05 -0.177023 0.00125 187
1 0.863775 0.64785 0.00125687 0.00825251 0.00858682 0.219159 0.00125 188
1 0.102258 0.630872 0.001627 0.000354376 0.000280843 -0.281252 0.00125 189
1 0.153502 0.809195 0.00159188 -0.000667328 -0.000644906 -0.230507 0.00125 190
1 1.50565 0.000863462 0.0013505 0.00069966 -0.000393103 0.185512 0.00125 191
1 0.96074 1.48038 0.00126623 -0.00158927 0.000597295 0.209555 0.00125 192
1 0.646841 0.416951 0.0015886 0.000972445 0.000154818 -0.285513 0.00125 193
1 0.377233 0.423711 0.00153723 0.00675083 -0.00523489 -0.263524 0.00125 194
1 1.4948 1.513 0.00138112 0.000292244 0.00758458 -0.237925 0.00125 195
1 1.40368 0.225953 0.00175082 -0.00167942 -0.00274197 0.157055 0.00125 196
1 0.817668 0.10859 0.00128321 0.00390403 -0.00253893 0.2386 0.00125 197
1 0.95854 1.0858 0.00125479 0.00347731 0.00306348 -0.316272 0.00125 198
1 0.711084 0.932622 0.00163585 0.0115831 -0.00689869 0.0543533 0.00125 199
1 1.3397 1.03126 0.00126451 0.00202177 0.000276823 0.19167 0.00125 200
1 1.22529 0.550481 0.00165904 -0.00387398 0.00397599 0.203067 0.00125 201
1 0.189408 0.88868 0.00242365 -0.00269043 3.85756e-05 -0.0341558 0.00125 202
1 0.323142 0.931249 0.00134096 -0.000733458 0.000525852 0.169654 0.00125 203
1 0.209225 0.327227 0.00223318 -0.00793616 -0.00310345 -0.176525 0.00125 204
1 0.274412 0.375376 0.00174029 -0.00456862 -0.000179252 0.169497 0.00125 205
1 1.38094 0.77908 0.00141782 0.00213064 0.00391973 -0.247727 0.00125 206
1 0.108253 1.06912 0.00174266 -0.00380764 -0.00420669 -0.218979 0.00125 207
1 0.669816 0.119393 0.0013537 -0.00247542 -0.00293861 0.142807 0.00125 208
1 0.410279 0.664387 0.00127985 -0.000409122 0.0112133 -0.232008 0.00125 209
1 1.43083 1.44868 0.00127789 -0.0117934 -0.0035386 -0.247721 0.00125 210
1 1.21259 0.621343 0.00154533 -0.00193058 -0.00159116 -0.103102 0.00125 211
1 0.861346 1.11848 0.00144457 0.00484761 0.00841184 0.165428 0.00125 212
1 0.736937 0.374833 0.00127241 -0.00119644 -0.00156384 -0.27947 0.00125 213
1 0.422589 0.625138 0.00163086 0.000258919 0.000356454 0.208846 0.00125 214
1 0.462344 0.084006 0.00147978 -0.000479145 -0.0105271 -0.195296 0.00125 215
1 0.762491 0.372302 0.00144489 -0.00186079 -0.00141547 0.0915528 0.00125 216
1 1.34726 0.433519 0.00122556 -0.000989888 -0.000491363 -0.00916309 0.00125 217
1 0.220505 0.839382 0.00131785 -0.00128987 -0.00220186 -0.230958 0.00125 218
1 1.56113 0.26018 0.0016255 -0.0029139 0.00285875 -0.236373 0.00125 219
1 0.824294 0.495063 0.00122972 0.000236571 -0.000408817 0.0237789 0.00125 220
1 0.0830079 0.780765 0.00153963 -0.0002924 -0.00202449 -0.236411 0.00125 221
1 0.60604 0.42098 0.00195353 0.00227981 0.000315768 -0.0295196 0.00125 222
1 0.950806 1.48639 0.00126306 -0.000749952 -0.00178069 -0.277387 0.00125 223
1 1.13565 0.375576 0.00241663 0.00792539 0.00241062 -0.0399646 0.00125 224
1 0.700125 0.445547 0.0012858 -0.00556445 -0.0118818 -0.233854 0.00125 225
1 0.336702 0.2137 0.00122403 0.00526143 -0.00263838 0.038659 0.00125 226
1 0.60964 0.322527 0.0012942 -0.00686809 0.00060652 -0.238198 0.00125 227
1 0.379655 1.56173 0.00230424 0.00324063 0.00235019 -0.127221 0.00125 228
1 1.43592 0.955736 0.00202552 -0.00315848 -0.00133484 -0.186383 0.00125 229
1 0.122056 0.0841561 0.0013655 -0.00410421 0.00409687 0.163759 0.00125 230
1 0.361207 0.917095 0.00163554 -0.00663852 0.00582288 -0.178033 0.00125 231
1 1.17715 1.28132 0.00123486 -0.00144844 0.000637649 0.149172 0.00125 232
1 0.0884454 1.55276 0.00130406 -0.00339496 -0.000256784 -0.234302 0.00125 233
1 1.13634 0.287456 0.0013905 -0.000283537 -0.0030578 0.18079 0.00125 234
1 0.451863 0.320443 0.00134053 0.00111864 -0.00119086 -0.236536 0.00125 235
1 1.40212 1.13885 0.00180015 0.0010065 -0.000270513 -0.216634 0.00125 236
1 0.66846 1.47297 0.00180339 0.000862386 0.00109957 -0.228118 0.00125 237
1 0.0672591 1.27593 0.00144381 0.00135706 0.00554525 -0.23984 0.00125 238
1 1.30351 0.852498 0.00160645 -0.00438353 -0.00168459 -0.0935663 0.00125 239
1 1.04572 1.52829 0.00144781 -0.000531849 0.000398301 -0.248808 0.00125 240
1 0.290873 1.09323 0.00150511 -0.000207773 -0.000218779 0.211565 0.00125 241
1 0.125846 1.25963 0.00144623 -0.0035757 0.0108643 -0.231701 0.00125 242
1 0.584973 1.27023 0.00154905 0.00917472 -0.00317986 0.0549616 0.00125 243
1 0.829562 0.0162519 0.00204224 -0.00085322 -0.00164888 -0.183726 0.00125 244
1 1.26731 0.511703 0.00154723 0.000495202 4.76591e-05 -0.231115 0.00125 245
1 0.596105 0.684108 0.00187887 0.000194748 -0.00441579 -0.246382 0.00125 246
1 0.0926187 0.823301 0.0021629 0.0014356 -0.0031529 -0.0228431 0.00125 247
1 0.643242 0.121879 0.00137975 0.00188352 0.00420685 -0.238424 0.00125 248
1 1.37219 0.0768778 0.0015437 0.00254486 -0.000534141 -0.243561 0.00125 249
1 0.652996 1.30094 0.00152486 -0.00802308 -0.00355192 -0.238052 0.00125 250
1 1.15766 1.33907 0.00179379 0.0189863 0.00432827 -0.21729 0.00125 251
1 1.46831 1.28813 0.00135372 0.000289759 -0.00142866 -0.226435 0.00125 252
1 0.362904 1.27614 0.00171209 -0.00479598 0.00939017 -0.0839733 0.00125 253
1 0.552149 1.32493 0.00169409 -0.00532161 -0.00615562 0.0903544 0.00125 254
1 0.994951 1.03738 0.00209249 -0.00197923 -0.000773486 -0.055219 0.00125 255
1 0.720848 1.24543 0.00178334 -0.00449143 0.016106 -0.0804255 0.00125 256
1 0.999855 0.941361 0.00211789 0.00249218 0.00268492 -0.203478 0.00125 257
1 1.33538 0.941511 0.00123159 0.00138832 0.000353572 -0.0923433 0.00125 258
1 1.28067 0.177764 0.00145651 0.000529297 0.00411419 -0.187224 0.00125 259
1 0.861804 0.327836 0.00166777 0.0014288 0.000115966 -0.229872 0.00125 260
1 0.85288 1.55926 0.00137992 -0.00234394 0.000725879 0.222581 0.00125 261
1 0.830526 0.397081 0.00136218 0.00437131 -0.00080076 0.185844 0.00125 262
1 0.271963 1.42323 0.00138715 0.000107122 0.00195869 0.218199 0.00125 263
1 0.972608 1.54068 0.00147326 -0.0096981 -0.0154142 -0.239308 0.00125 264
1 0.344211 1.12073 0.00127169 0.00116376 -0.000384419 -0.231169 0.00125 265
1 0.721913 0.267816 0.00128446 0.00330193 0.000194714 -0.247262 0.00125 266
1 1.10253 0.408283 0.00132275 0.00212772 -0.00248039 0.175132 0.00125 267
1 1.53428 0.683932 0.00144741 0.00197783 -0.000976189 -0.10078 0.00125 268
1 0.734725 0.163363 0.0016559 -0.000284966 -0.000918355 0.0920075 0.00125 269
1 0.801481 0.940359 0.00132247 -0.000966012 -0.00226149 0.155983 0.00125 270
1 1.47589 1.35237 0.00203146 -0.00343209 0.00317143 -0.030277 0.00125 271
1 1.51583 0.00586452 0.00125766 -0.00064535 0.00250265 0.191709 0.00125 272
1 0.870354 1.37167 0.00229099 0.00552456 0.0120962 0.0221651 0.00125 273
1 0.98521 0.403761 0.00238578 -1.06276e-05 -0.000144487 -0.035323 0.00125 274
1 0.97766 0.712436 0.00158809 -0.0148294 -0.0167145 -0.234671 0.00125 275
1 1.34294 1.37415 0.0015769 0.00327332 -0.00443454 -0.229509 0.00125 276
1 0.365 1.07427 0.00140771 0.00493033 0.00282496 -0.183436 0.00125 277
1 0.299577 0.797818 0.00186793 0.0175746 -0.0094162 -0.209088 0.00125 278
1 0.470779 1.46407 0.00155123 0.00386511 0.00207198 0.0978324 0.00125 279
1 0.043812 1.53118 0.0016797 0.001594 0.00760442 0.105559 0.00125 280
1 1.40497 0.749227 0.0012903 -7.47875e-05 0.00222635 -0.232349 0.00125 281
1 0.168167 0.416404 0.00246484 0.000121475 3.31936e-05 -0.0864186 0.00125 282
1 0.0856073 1.13226 0.00145036 -0.000371694 1.22861e-05 0.21242 0.00125 283
1 0.0121734 0.502224 0.00138728 0.00272355 0.00176068 -0.238644 0.00125 284
1 0.43164 0.831084 0.00207961 0.000473052 -0.00116767 -0.186005 0.00125 285
1 0.920258 1.45587 0.00162658 -0.00301539 -0.00166325 0.0975222 0.00125 286
1 1.22787 0.269141 0.00221627 -0.00713591 0.00593752 -0.0522403 0.00125 287
1 0.742653 0.698855 0.00130894 -0.00077579 0.000513267 0.161816 0.00125 288
1 0.451179 0.461098 0.00131884 -0.00411217 -0.00427045 0.178859 0.00125 289
1 1.09618 0.229921 0.00123907 -0.000134181 -0.000735262 0.20695 0.00125 290
1 1.25926 1.26891 0.00134749 -0.00060777 -0.0036334 -0.220634 0.00125 291
1 0.881726 1.51815 0.00236172 0.00255671 0.00111089 -0.043078 0.00125 292
1 1.34146 0.58677 0.00181686 -0.00325934 -0.00211142 0.127303 0.00125 293
1 0.0989623 1.26325 0.00154775 0.000194182 0.00476007 -0.232197 0.00125 294
1 0.292498 1.05818 0.00161454 -0.000443526 0.00414519 0.0947336 0.00125 295
1 0.840274 0.17414 0.0013561 0.0015764 0.00355084 -0.237866 0.00125 296
1 1.48 1.28128 0.00132968 0.00481014 0.0026791 0.172803 0.00125 297
1 0.480868 1.40752 0.00135415 0.0019876 -0.00168857 -0.247535 0.00125 298
1 1.00142 1.5538 0.00148771 -0.00438289 -0.0028101 -0.232264 0.00125 299
1 0.385297 1.43243 0.00142313 0.00218957 -0.00967063 0.140965 0.00125 300
1 0.657157 0.142258 0.00180889 -0.000426196 0.00677248 -0.0222337 0.00125 301
1 1.56063 0.2821 0.0016681 0.00259327 0.00119933 0.094905 0.00125 302
1 0.0649064 0.809083 0.00161457 -2.23603e-05 -0.0024714 -0.185178 0.00125 303
1 1.37146 1.16572 0.00129817 0.0113789 -0.00663362 -0.233112 0.00125 304
1 1.14616 1.39651 0.00137543 -0.00622106 -0.0239697 -0.202014 0.00125 305
1 0.85623 0.617699 0.00134741 0.00110238 -0.00741746 -0.308929 0.00125 306
1 1.39179 0.527522 0.00137242 0.000250055 -0.00145712 -0.224654 0.00125 307
1 0.0856809 0.175002 0.00219339 -0.00160423 -0.00182348 -0.154519 0.00125 308
1 1.40318 1.19304 0.00144052 -0.00344841 -0.000995926 -0.189163 0.00125 309
1 0.221529 1.16197 0.00211397 0.000523416 -0.00480663 -0.0581462 0.00125 310
1 0.257514 1.23215 0.0012333 -0.000117919 -2.71542e-06 0.220641 0.00125 311
1 0.765163 0.923502 0.00137772 0.000458363 -0.00281044 -0.201363 0.00125 312
1 1.34226 0.216834 0.00135148 0.00278412 -0.00211847 -0.237417 0.00125 313
1 1.07246 0.869966 0.001343 -0.000728802 0.00168411 0.171685 0.00125 314
1 0.31978 0.73479 0.00130087 0.00211193 -0.00654234 -0.234205 0.00125 315
1 0.602745 0.00322264 0.00211786 0.000518199 0.00390109 -0.0579412 0.00125 316
1 0.351823 0.626828 0.00168757 -2.6866e-05 0.00651026 0.0956969 0.00125 317
1 0.723109 1.4116 0.00199833 -0.00388495 -0.00155178 -0.0784451 0.00125 318
1 1.21656 1.32723 0.00125595 -0.000193158 -0.000687554 -0.252303 0.00125 319
1 0.158382 1.48941 0.00125865 0.00464353 0.000824239 -0.230068 0.00125 320
1 0.0396768 0.635853 0.00129555 -5.3963e-05 -6.97924e-05 -0.220115 0.00125 321
1 0.857385 1.05011 0.00153413 0.000772461 -9.73335e-05 -0.176118 0.00125 322
1 1.43701 1.48895 0.00135785 0.00403338 -0.0016779 0.191403 0.00125 323
1 0.196806 1.1238 0.00130007 -0.0117353 0.0256012 -0.22849 0.00125 324
1 1.46709 0.562333 0.0012861 -0.000119211 -0.00104623 -0.229565 0.00125 325
1 1.27884 0.43865 0.00158182 -0.00198511 -0.000540143 -0.229399 0.00125 326
1 0.0248682 0.10402 0.00246862 0.00885385 0.00318833 -0.0303857 0.00125 327
1 0.434778 1.01676 0.00165474 0.00029621 5.38816e-05 -0.160444 0.00125 328
1 0.756549 0.226398 0.00169934 0.00120734 -0.00140837 -0.15767 0.00125 329
1 0.203796 0.999066 0.00148648 0.00111224 0.00242755 -0.176555 0.00125 330
1 1.05575 1.41677 0.00165805 0.000877608 0.00107673 -0.0925765 0.00125 331
1 0.697047 0.24457 0.0015211 0.00233007 0.00108772 0.0567942 0.00125 332
1 0.994635 0.911558 0.00146201 0.00849633 0.0100981 -0.239311 0.00125 333
1 1.39048 0.0237535 0.00130099 0.00549393 -0.00694211 0.177737 0.00125 334
1 0.653263 0.693541 0.00238309 0.0233864 -0.0118889 0.0188364 0.00125 335
1 0.172756 1.03528 0.0020672 -0.00159047 -0.00291458 -0.179144 0.00125 336
1 0.419837 1.35645 0.00148101 0.0011253 0.00623875 -0.180137 0.00125 337
1 0.0774881 0.286471 0.00190167 0.00281658 -0.00281942 -0.0715542 0.00125 338
1 0.404657 1.35416 0.00151259 -0.000232545 -9.68738e-05 0.115649 0.00125 339
1 0.0201938 0.961518 0.00139908 0.000489094 -0.00297713 -0.237468 0.00125 340
1 0.309002 0.873633 0.00122684 -0.0033489 -0.00123692 -0.147629 0.00125 341
1 1.49524 0.64609 0.00130592 -0.00182674 -0.00562272 0.233776 0.00125 342
1 1.10569 0.822073 0.00141735 -0.00653063 -0.00469784 0.141431 0.00125 343
1 0.801901 0.0319784 0.00247929 -0.00106341 -0.00578151 -0.0296816 0.00125 344
1 0.746841 0.301639 0.00172652 -0.00132712 0.00263789 0.0944629 0.00125 345
1 0.479339 0.991145 0.00130266 0.000106897 -0.000438194 0.00863292 0.00125 346
1 0.421432 0.887648 0.00137673 -0.00428087 0.0050043 -0.238943 0.00125 347
1 0.0201893 0.0295361 0.00160708 0.00519867 -0.00475844 -0.176632 0.00125 348
1 0.303378 1.44338 0.00140472 -0.00275466 -0.00311769 -0.22502 0.00125 349
1 1.38051 0.386222 0.00146585 2.69798e-05 0.000114283 -0.237437 0.00125 350
1 0.784906 1.30734 0.00166786 0.000798986 -0.0040988 -0.0925952 0.00125 351
1 0.0847353 1.28282 0.00187929 0.000831991 -0.00210715 -0.20718 0.00125 352
1 1.06517 0.0646401 0.00128481 0.00170826 -0.00449155 0.184774 0.00125 353
1 0.46219 1.38709 0.00143461 8.84615e-05 0.00399002 -0.239102 0.00125 354
1 1.1922 0.245108 0.00149872 -0.00135553 -0.00110476 0.10062 0.00125 355
1 1.01418 0.807148 0.00175337 -0.00493513 0.000353945 0.116196 0.00125 356
1 0.143693 0.432873 0.00182681 0.00233516 -0.001298 -0.210389 0.00125 357
1 0.0533414 1.15732 0.00136474 0.00378996 0.00292308 0.255883 0.00125 358
1 0.607839 0.745443 0.00157902 0.0105143 -0.000409034 -0.182468 0.00125 359
1 1.24251 0.166789 0.00156862 -0.00113747 -0.00190256 -0.235915 0.00125 360
1 0.404001 1.53589 0.00210348 0.00547329 0.00151474 -0.0585882 0.00125 361
1 0.650763 0.596382 0.00134728 0.00200681 -5.04571e-05 -0.237265 0.00125 362
1 1.23966 1.13406 0.00142188 0.0157107 -0.0151826 0.216907 0.00125 363
1 0.996228 0.201855 0.00141206 -9.52337e-05 -0.00712191 0.211394 0.00125 364
1 0.924091 0.957931 0.00147577 0.00295649 -0.00363319 -0.229376 0.00125 365
1 0.693007 0.298106 0.00160923 0.0089885 0.000298196 -0.177609 0.00125 366
1 0.980864 1.04046 0.00150231 -0.000145 0.00119043 0.117816 0.00125 367
1 0.875814 1.01238 0.00173579 0.000127218 0.00360155 -0.223461 0.00125 368
1 1.54868 0.266684 0.00176932 -0.0104804 0.00701546 -0.0802222 0.00125 369
1 0.394141 1.52955 0.00142186 0.000974992 -5.92706e-06 -0.239543 0.00125 370
1 0.95657 1.56427 0.00170111 0.00258122 0.00220058 -0.0891151 0.00125 371
1 1.55524 0.973497 0.00211675 0.000466742 -3.55195e-05 -0.190073 0.00125 372
1 0.0283197 0.423975 0.00126891 0.00435052 8.19878e-05 0.0711812 0.00125 373
1 1.12696 0.796224 0.00183501 -0.00113978 0.000380668 -0.212875 0.00125 374
1 0.394645 0.0865391 0.00135901 -0.00106326 -0.00236655 -0.233853 0.00125 375
1 0.83702 0.770107 0.00134553 0.00783142 -0.000151863 0.188616 0.00125 376
1 0.944563 1.55913 0.00122777 0.00115391 -0.000679017 0.140408 0.00125 377
1 1.26165 0.843794 0.0015169 -0.00189117 -0.00189109 0.204471 0.00125 378
1 0.730955 0.11418 0.00125564 -0.00282621 -0.00638899 -0.231522 0.00125 379
1 0.703214 1.32661 0.00150932 0.00199797 0.014974 0.11242 0.00125 380
1 0.916683 1.05836 0.00150737 -0.00125164 0.0012196 -0.237654 0.00125 381
1 0.536743 0.0751436 0.00142183 0.00738576 0.00345349 -0.230845 0.00125 382
1 1.52834 0.564697 0.00175963 0.00211415 -0.00615731 0.115137 0.00125 383
1 0.50638 0.414716 0.00136474 0.00125672 -0.00112627 -0.240356 0.00125 384
1 0.0471825 1.23405 0.00142088 0.00620083 -0.000606788 -0.249948 0.00125 385
1 0.0439421 1.52187 0.00153374 0.00045746 -0.00327284 -0.292381 0.00125 386
1 0.810735 0.258525 0.00221555 -0.0034294 -0.00128686 -0.0502522 0.00125 387
1 0.309799 0.119257 0.00146428 -0.00161482 0.00696238 -0.248094 0.00125 388
1 1.03319 1.00752 0.00126703 0.00179252 0.0108213 0.278231 0.00125 389
1 0.397972 0.232608 0.00131522 -0.00333139 -0.00353965 -0.232217 0.00125 390
1 0.0332426 0.77381 0.00139536 -7.0813e-05 -0.00759082 0.150886 0.00125 391
1 1.28711 0.0763037 0.00129228 0.00474893 -0.000534814 0.207738 0.00125 392
1 1.51718 1.26077 0.0013303 -0.00842082 -0.00129875 0.258196 0.00125 393
1 1.52566 0.0911089 0.0013722 -0.00608132 0.00133206 0.163366 0.00125 394
1 0.249929 1.29189 0.00124031 0.000261277 0.00193511 -0.224574 0.00125 395
1 0.385077 0.959259 0.00181225 2.18613e-05 -0.000562413 0.114897 0.00125 396
1 1.24278 0.970881 0.00221785 0.00153169 0.000690581 -0.047728 0.00125 397