ITEM: TIMESTEP
1000000
ITEM: NUMBER OF ATOMS
10000
ITEM: BOX BOUNDS pp pp ff
0.0000000000000000e+00 6.8895174125000003e-01
0.0000000000000000e+00 6.8895174125000003e-01
-1.2500000000000001e-02 1.2500000000000001e-02
ITEM: ATOMS type x y z vx vy vz radius id
1 0.488374 0.0566356 0.00148508 -0.0197768 0.00186521 -0.178941 0.00125 1
1 0.420951 0.265024 0.00138597 0.00421485 -0.000769002 0.181141 0.00125 2
1 0.0640127 0.0681513 0.00153393 0.00141597 0.00675633 -0.17843 0.00125 3
1 0.395267 0.087419 0.00136576 -0.013256 -0.0120291 0.160082 0.00125 4
1 0.301858 0.408026 0.00162096 0.0091389 0.00120106 0.051656 0.00125 5
1 0.0384776 0.196856 0.00180041 -8.40208e-06 0.00463317 -0.0443277 0.00125 6
1 0.0610837 0.485439 0.00158553 0.00719207 0.0200461 -0.230385 0.00125 7
1 0.428035 0.66735 0.00184831 0.00612442 0.00181925 -0.149938 0.00125 8
1 0.346735 0.526919 0.00148348 -0.00367183 0.00377858 0.0848073 0.00125 9
1 0.217911 0.173887 0.00138083 0.014063 0.0175126 0.157925 0.00125 10
1 0.0654267 0.30721 0.00162922 0.000929043 -0.00229393 -0.28493 0.00125 11
1 0.0128675 0.106603 0.00131019 -0.0160585 0.00678575 -0.100947 0.00125 12
1 0.418645 0.0299279 0.00150454 0.00276661 -0.00272492 -0.196493 0.00125 13
1 0.0806967 0.482556 0.00137216 0.00153652 -0.00609712 -0.238974 0.00125 14
1 0.533121 0.379557 0.00157762 -0.000199694 -0.0102974 0.052564 0.00125 15
1 0.604848 0.0914759 0.00246786 -0.0032801 -0.0053886 -0.0374027 0.00125 16
1 0.0215952 0.126255 0.00152685 0.00303411 0.000102457 0.237813 0.00125 17
1 0.493812 0.380572 0.00124296 -0.000801641 -0.00654135 0.243945 0.00125 18
1 0.301574 0.449598 0.00222385 -0.000335392 0.00141596 -0.0151144 0.00125 19
1 0.598411 0.398614 0.00143324 -0.00108404 0.0041555 -0.232604 0.00125 20
1 0.398874 0.334554 0.00174493 0.00400894 -0.0094651 -0.225684 0.00125 21
1 0.0303323 0.593805 0.00128825 -0.00460589 0.000436428 0.190739 0.00125 22
1 0.534452 0.490513 0.00153408 0.00959406 0.00557334 -0.179248 0.00125 23
1 0.197 0.466343 0.00126027 0.00990438 0.011536 -0.233266 0.00125 24
1 0.255716 0.173947 0.00247034 -0.000273857 0.00175199 -0.0357908 0.00125 25
1 0.0438676 0.435516 0.00134315 -0.00301546 -0.000225964 -0.252777 0.00125 26
1 0.569216 0.00603414 0.0016087 -0.00352711 -0.0146684 -0.0913856 0.00125 27
1 0.507942 0.477387 0.00128889 0.00640189 0.00788526 -0.233162 0.00125 28
1 0.642829 0.658465 0.00124145 0.00159611 0.00511783 0.188621 0.00125 29
1 0.165447 0.16095 0.00225744 0.00192112 0.00109786 -0.0668093 0.00125 30
1 0.421759 0.0560031 0.00140188 0.00675015 -0.00139358 -0.2373 0.00125 31
1 0.0233062 0.688142 0.00158392 0.000859956 0.00236511 -0.174516 0.00125 32
1 0.0186865 0.0385292 0.00156475 -0.0106764 -0.00272822 -0.23062 0.00125 33
1 0.297817 0.0256776 0.00158001 -0.0109965 -0.0137978 -0.176455 0.00125 34
1 0.14259 0.646471 0.00134528 0.0196062 -0.00681873 -0.31065 0.00125 35
1 0.162187 0.354352 0.00122996 -0.000135676 0.000310356 0.0298794 0.00125 36
1 0.517552 0.391515 0.0012896 0.00168502 0.0112785 0.00237077 0.00125 37
1 0.446967 0.636881 0.00151802 0.00901974 0.00578652 0.239625 0.00125 38
1 0.687699 0.289882 0.00127195 0.000385906 -0.00423134 0.190641 0.00125 39
1 0.127647 0.441963 0.00129353 -0.00426389 -0.00270637 0.236367 0.00125 40
1 0.145276 0.0573467 0.00208504 -0.00877648 0.00572197 -0.176699 0.00125 41
1 0.611376 0.505369 0.00155981 -0.00691267 0.00308244 -0.186771 0.00125 42
1 0.030739 0.445319 0.00140076 0.0043202 0.0138603 -0.239355 0.00125 43
1 0.145298 0.23944 0.00128941 0.00409753 0.00610909 0.269619 0.00125 44
1 0.297658 0.105392 0.00175368 0.000961616 0.00451655 0.0763659 0.00125 45
1 0.388843 0.335819 0.00140432 0.0157635 0.0162568 0.220265 0.00125 46
1 0.631032 0.416125 0.00150258 0.00329877 -0.00725225 -0.236985 0.00125 47
1 0.303506 0.0775841 0.00132661 -0.0117343 -0.0127497 0.194391 0.00125 48
1 0.0456158 0.544622 0.00155629 0.0349198 0.0418107 -0.197832 0.00125 49
1 0.334773 0.309293 0.00132476 0.0119768 0.00165443 -0.0209931 0.00125 50
1 0.59329 0.554369 0.00181366 -0.000462797 0.0104359 -0.0698392 0.00125 51
1 0.39504 0.442052 0.00171278 0.0253906 -0.00584597 0.165454 0.00125 52
1 0.658414 0.614561 0.00226846 -0.00317393 0.0124814 -0.0177103 0.00125 53
1 0.25439 0.0908161 0.00178155 0.000728838 -0.00531706 -0.0931402 0.00125 54
1 0.517956 0.268502 0.0013591 0.000520175 0.00735326 -0.203192 0.00125 55
1 0.624699 0.0928393 0.00144417 0.00558844 -0.00837447 0.235908 0.00125 56
1 0.411129 0.570351 0.00209217 -0.00718197 1.05125e-05 -0.175096 0.00125 57
1 0.425079 0.238845 0.00152989 -0.00235926 -0.0012877 -0.23671 0.00125 58
1 0.650797 0.155653 0.0014276 -0.000537484 -0.00075082 0.10972 0.00125 59
1 0.0581797 0.612122 0.00174305 -0.000859587 -0.0058296 0.121904 0.00125 60
1 0.574541 0.0711625 0.0013034 0.00103286 0.0143863 0.152775 0.00125 61
1 0.452375 0.220937 0.00146783 0.00181259 0.00206937 0.208266 0.00125 62
1 0.305503 0.386883 0.00153381 0.00536632 -0.00180635 -0.288338 0.00125 63
1 0.548712 0.366267 0.00123016 -0.00524593 0.00471489 -0.0629699 0.00125 64
1 0.29106 0.480986 0.00131244 0.000242517 -0.00673533 -0.238728 0.00125 65
1 0.0307612 0.584217 0.00152618 0.000540781 -0.00987094 -0.236442 0.00125 66
1 0.416159 0.0165349 0.00131302 0.00632439 0.00451353 -0.2343 0.00125 67
1 0.20768 0.62783 0.00183126 -0.00420353 0.00918688 -0.075859 0.00125 68
1 0.532355 0.612807 0.00123177 0.00374459 -0.00371617 -0.0983457 0.00125 69
1 0.431228 0.251567 0.0014671 0.00164387 0.00357357 -0.298516 0.00125 70
1 0.414887 0.350071 0.00219176 0.00331529 0.000863216 0.0144638 0.00125 71
1 0.0693911 0.206634 0.00211612 -0.00194753 -0.0150004 -0.0613748 0.00125 72
1 0.146384 0.115374 0.00156465 0.00704159 -0.0132984 -0.0935245 0.00125 73
1 0.665984 0.356074 0.0014886 -0.00337146 0.00023227 -0.232094 0.00125 74
1 0.268246 0.50343 0.00146712 0.0130426 -0.00550259 0.219847 0.00125 75
1 0.196263 0.430598 0.00147234 -0.00506317 0.00840073 -0.19699 0.00125 76
1 0.511047 0.333264 0.00142892 -0.0064612 0.00359533 0.234727 0.00125 77
1 0.424801 0.281619 0.00137461 -0.0071307 -0.0101343 -0.2535 0.00125 78
1 0.226344 0.464846 0.00141559 -0.0101607 0.0049659 0.170879 0.00125 79
1 0.00922854 0.370653 0.00150749 0.0203935 -0.0107422 -0.267606 0.00125 80
1 0.545297 0.128558 0.00142516 0.00364652 -0.000613738 0.168304 0.00125 81
1 0.357682 0.442703 0.0015123 0.0140088 -0.00700335 0.0938566 0.00125 82
1 0.248487 0.227512 0.00150496 -0.00530885 0.00633015 -0.231887 0.00125 83
1 0.0992853 0.565873 0.00148882 -0.0141136 0.0108693 -0.23247 0.00125 84
1 0.554471 0.688746 0.0018062 0.000585263 -0.0184156 -0.215973 0.00125 85
1 0.452156 0.283005 0.00180906 -0.0221499 0.0053345 -0.152742 0.00125 86
1 0.442132 0.234435 0.00147273 -0.0110266 -0.00148084 0.127551 0.00125 87
1 0.407701 0.544145 0.00129706 -0.00431426 0.00196164 0.111169 0.00125 88
1 0.306478 0.133216 0.0014239 0.0125726 -0.00429444 0.144209 0.00125 89
1 0.201929 0.282643 0.00140409 -0.0154423 -0.00272833 0.174844 0.00125 90
1 0.271517 0.241214 0.00163661 0.000564536 0.0109241 -0.085106 0.00125 91
1 0.241002 0.11424 0.00127037 -0.00235644 -0.00187226 0.163472 0.00125 92
1 0.0068538 0.490724 0.00123004 0.011135 0.000990615 -0.0420459 0.00125 93
1 0.586645 0.494325 0.00137373 -0.00224863 -0.00197381 -0.202216 0.00125 94
1 0.278263 0.512331 0.00143344 -0.0166075 0.00196697 0.141564 0.00125 95
1 0.185463 0.24722 0.00179599 -0.000292414 0.00228112 -0.219032 0.00125 96
1 0.648638 0.434407 0.00134858 -0.0175154 0.00298706 -0.186721 0.00125 97
1 0.118056 0.542215 0.0017735 0.00733683 0.00188733 -0.219569 0.00125 98
1 0.53706 0.356853 0.00129647 -0.0168143 -0.00208766 0.178305 0.00125 99
1 0.679575 0.377238 0.00159021 0.0019987 0.00144574 0.0923714 0.00125 100
1 0.412697 0.460173 0.00172657 0.013196 0.00222492 -0.268867 0.00125 101
1 0.411595 0.514491 0.00126303 0.00219255 -0.0201472 -0.230566 0.00125 102
1 0.602179 0.10061 0.00136322 0.000522308 0.000245292 -0.237827 0.00125 103
1 0.649735 0.676484 0.0018985 0.000684711 0.00284744 -0.0717253 0.00125 104
1 0.633546 0.485608 0.00124032 -0.00201723 0.00142823 -0.203113 0.00125 105
1 0.549661 0.231925 0.00131972 -0.0112454 0.00144578 0.196468 0.00125 106
1 0.203971 0.0460719 0.00143281 0.00764045 0.0108344 0.0941143 0.00125 107
1 0.619135 0.329683 0.00157305 -0.0105786 -0.00914069 0.0851491 0.00125 108
1 0.259438 0.424356 0.00153551 0.00603047 0.0074984 0.234155 0.00125 109
1 0.290275 0.509847 0.00186724 -0.0148697 0.0109854 -0.0705076 0.00125 110
1 0.51234 0.37261 0.00213382 0.00670977 -0.00935953 -0.199441 0.00125 111
1 0.383683 0.272259 0.00164441 0.00236758 -0.00696737 0.0903621 0.00125 112
1 0.223941 0.300459 0.00152792 -0.0228253 -0.0108351 -0.231984 0.00125 113
1 0.555349 0.41889 0.00142803 0.0157621 0.00238491 0.21214 0.00125 114
1 0.263707 0.154496 0.00123931 0.0174696 0.00933309 -0.19322 0.00125 115
1 0.588082 0.390222 0.00179485 -0.0193506 0.0055376 0.156718 0.00125 116
1 0.162876 0.0468093 0.00224011 -0.013007 -0.00856511 -0.0503014 0.00125 117
1 0.366033 0.189014 0.00158476 -0.00644701 0.00269041 0.108798 0.00125 118
1 0.506617 0.576694 0.00146473 0.00584486 0.00053551 0.127594 0.00125 119
1 0.305001 0.521665 0.00144555 -0.0109367 -0.00562434 0.219505 0.00125 120
1 0.498228 0.0077231 0.00157292 -0.00347136 -0.01383 -0.286695 0.00125 121
1 0.279849 0.367516 0.00158501 0.00187859 0.0155856 -0.179157 0.00125 122
1 0.504372 0.642066 0.00150364 0.00776571 0.0041684 0.215699 0.00125 123
1 0.53663 0.365981 0.00137665 -0.0031102 -0.00887705 0.18622 0.00125 124
1 0.280932 0.511317 0.0013771 0.0188355 0.00596539 0.152308 0.00125 125
1 0.224188 0.221781 0.0024553 -0.00383384 -0.00189079 -0.0563716 0.00125 126
1 0.141542 0.121204 0.00162101 -0.0182132 0.0156472 -0.227211 0.00125 127
1 0.677442 0.260212 0.00135952 -0.00446838 0.00532557 0.186121 0.00125 128
1 0.446419 0.199827 0.00142344 -0.00157232 -0.00164586 0.144042 0.00125 129
1 0.00347148 0.381208 0.00168002 -0.00385499 -0.0232632 -0.226402 0.00125 130
1 0.601005 0.625716 0.00134294 -0.00438823 -0.00607426 -0.27914 0.00125 131
1 0.0529745 0.683903 0.00154077 -0.00598068 -0.00153507 -0.10032 0.00125 132
1 0.218387 0.336856 0.00128059 0.000611819 -0.000166557 -0.198626 0.00125 133
1 0.390683 0.555203 0.00164197 -0.00752643 0.0127249 -0.232078 0.00125 134
1 0.560738 0.642284 0.00157701 0.0115236 0.000564339 0.0931613 0.00125 135
1 0.552984 0.647429 0.00123275 0.00627846 0.00511327 -0.119398 0.00125 136
1 0.13075 0.449924 0.00220468 -0.00874833 -0.00865114 -0.153992 0.00125 137
1 0.0234841 0.376869 0.00190446 -0.0159685 0.00977235 -0.216517 0.00125 138
1 0.182969 0.106428 0.00158749 0.00393209 0.00157867 -0.0932338 0.00125 139
1 0.360792 0.00940287 0.00152413 0.00321806 -0.00202451 -0.237666 0.00125 140
1 0.376945 0.0943344 0.00148534 0.0124664 0.00468841 0.119754 0.00125 141
1 0.309134 0.469133 0.00172734 -0.0064138 -8.08314e-05 0.106438 0.00125 142
1 0.552222 0.224003 0.00139406 0.00764109 -0.00698803 0.249451 0.00125 143
1 0.527952 0.608745 0.00138245 0.00186218 0.00699348 0.218905 0.00125 144
1 0.591062 0.15286 0.00134878 0.00103111 -0.00450999 0.2283 0.00125 145
1 0.455931 0.0808668 0.00149211 0.0250651 0.0244725 0.155994 0.00125 146
1 0.309469 0.638578 0.00128733 0.0107685 -0.0143832 -0.233944 0.00125 147
1 0.194826 0.206442 0.00159648 9.84241e-05 0.000535517 0.0941948 0.00125 148
1 0.0776703 0.672422 0.00169124 0.00234611 -0.00226113 -0.15774 0.00125 149
1 0.18101 0.615479 0.0013315 0.00120481 0.00182945 -0.236619 0.00125 150
1 0.424753 0.568235 0.00143245 -0.00134841 0.0157202 0.141231 0.00125 151
1 0.669097 0.179794 0.00174834 -0.0130247 -0.00380239 0.179154 0.00125 152
1 0.418166 0.617145 0.00129724 0.00193639 0.00561156 0.20069 0.00125 153
1 0.410274 0.0112505 0.00155425 0.0149761 0.00265807 -0.230773 0.00125 154
1 0.686533 0.105843 0.00123719 0.00778612 -0.00982681 0.186872 0.00125 155
1 0.446283 0.297819 0.00147243 0.00373884 -0.00177121 -0.239542 0.00125 156
1 0.172187 0.474682 0.00163747 0.00758288 -0.00658883 -0.0516046 0.00125 157
1 0.283971 0.4525 0.00135204 -0.0309262 -0.0104223 -0.229542 0.00125 158
1 0.171326 0.336088 0.00148827 -0.0140471 0.00222485 -0.232452 0.00125 159
1 0.138572 0.384673 0.00141281 -0.00714252 0.0069685 -0.240666 0.00125 160
1 0.0574946 0.0537584 0.00151813 -0.002154 0.00120288 0.241217 0.00125 161
1 0.612755 0.387061 0.00157136 -0.0100767 0.00861516 -0.184616 0.00125 162
1 0.441839 0.472431 0.00125699 -0.00889228 0.00185345 -0.230672 0.00125 163
1 0.0949123 0.404424 0.00146051 0.00398527 -0.00794505 -0.2979 0.00125 164
1 0.595913 0.487955 0.00158961 -0.00343706 -0.00911448 -0.22849 0.00125 165
1 0.0728545 0.483385 0.00167206 9.64054e-05 -0.0134736 -0.22885 0.00125 166
1 0.016414 0.0874014 0.00141159 0.00834693 -0.0239004 0.171787 0.00125 167
1 0.590249 0.463519 0.00147599 0.00108337 -0.000454489 -0.197723 0.00125 168
1 0.416757 0.135243 0.00130651 0.00919265 0.0133148 0.0350849 0.00125 169
1 0.0060223 0.301727 0.00153111 0.00349048 0.00442979 -0.0999024 0.00125 170
1 0.458417 0.0707605 0.00136627 0.0097261 -0.00379801 0.129584 0.00125 171
1 0.263285 0.673868 0.00138559 0.00599591 0.00689935 -0.238684 0.00125 172
1 0.484031 0.157365 0.00236484 0.00030422 0.000293416 0.0223427 0.00125 173
1 0.157151 0.0692869 0.00133438 -0.00896252 0.00118654 -0.247428 0.00125 174
1 0.0124287 0.212914 0.00135204 0.0168219 -0.00142453 0.135684 0.00125 175
1 0.6784 0.63072 0.00140087 -0.013771 0.000903448 -0.149476 0.00125 176
1 0.391729 0.558579 0.00167412 0.00188447 0.00317623 -0.228307 0.00125 177
1 0.444958 0.354625 0.00128122 0.0141978 -0.00664087 0.0754499 0.00125 178
1 0.66207 0.354442 0.00123966 -0.00483447 0.0087602 -0.227615 0.00125 179
1 0.60898 0.680337 0.00196958 -0.000459722 0.0160727 -0.195306 0.00125 180
1 0.51982 0.401094 0.00145737 -0.00187242 0.00720856 -0.197937 0.00125 181
1 0.318009 0.423102 0.00177968 0.000538355 0.00235809 -0.0605038 0.00125 182
1 0.304301 0.341225 0.00176305 -0.00900466 -0.00480352 0.128503 0.00125 183
1 0.100746 0.427879 0.00148985 -0.00341763 0.00943307 0.211783 0.00125 184
1 0.538672 0.00678048 0.00158434 -0.00424998 -0.0065769 -0.252877 0.00125 185
1 0.207013 0.09424 0.00130893 0.000906153 -0.00247335 -0.206448 0.00125 186
1 0.523075 0.563048 0.00135827 -0.0115041 0.0192467 0.175555 0.00125 187
1 0.363288 0.117306 0.00130595 0.0046757 0.0105931 -0.234361 0.00125 188
1 0.175851 0.321598 0.00136607 0.000300216 -0.00266905 -0.189829 0.00125 189
1 0.555897 0.182964 0.00134746 -0.00639766 0.000946474 0.137126 0.00125 190
1 0.452912 0.174158 0.00149508 -0.00377088 0.00425183 0.0706649 0.00125 191
1 0.650007 0.408386 0.00231504 0.0145003 0.00470251 -0.0660594 0.00125 192
1 0.242906 0.126564 0.00151429 0.0033453 -0.0226478 -0.237479 0.00125 193
1 0.559541 0.591771 0.00127035 -0.00308396 -0.00446638 0.189986 0.00125 194
1 0.583565 0.165833 0.00160787 0.00613247 -0.00860478 0.105916 0.00125 195
1 0.169385 0.226855 0.00231158 0.00104175 -0.00063869 -0.0461317 0.00125 196
1 0.0774206 0.0938633 0.00203647 0.0107787 0.00339122 -0.0665318 0.00125 197
1 0.687571 0.372081 0.00126519 0.00271075 0.002003 -0.230973 0.00125 198
1 0.534921 0.0191748 0.00175606 -0.011344 0.00414934 -0.221397 0.00125 199
1 0.0612659 0.0667545 0.00123102 0.00602518 -0.00291539 -0.072971 0.00125 200
1 0.361491 0.475089 0.00147013 0.0108333 0.00441212 0.123029 0.00125 201
1 0.121947 0.526552 0.00168303 -0.0100748 -0.00430135 -0.227339 0.00125 202
1 0.639532 0.461618 0.00243491 0.00260972 0.0119926 -0.0381617 0.00125 203
1 0.0209942 0.322846 0.00138845 -0.00382631 -0.000427886 0.180501 0.00125 204
1 0.57199 0.220222 0.00138626 0.0032443 0.000912159 0.183065 0.00125 205
1 0.676317 0.422944 0.00157786 0.0032971 -0.00380603 0.094898 0.00125 206
1 0.67087 0.437373 0.00191065 0.0178841 0.0110639 -0.243749 0.00125 207
1 0.258917 0.540474 0.00129751 -0.0224975 -0.0058398 -0.312771 0.00125 208
1 0.493895 0.516164 0.00177017 -0.0056504 0.00559267 -0.0872074 0.00125 209
1 0.255276 0.361362 0.00127409 0.000872618 -0.0072722 -0.230409 0.00125 210
1 0.436522 0.0712125 0.00181609 -0.00211002 -0.00796642 -0.214608 0.00125 211
1 0.0777788 0.418063 0.0015013 -0.00302285 0.0030894 0.217878 0.00125 212
1 0.657337 0.549906 0.0015609 0.00834427 0.00810276 -0.230568 0.00125 213
1 0.653903 0.14128 0.00122566 -0.00294773 -0.00213544 0.036451 0.00125 214
1 0.432376 0.136979 0.00127939 -0.00854818 0.0101314 -0.24754 0.00125 215
1 0.256734 0.0618694 0.00130949 -0.00860964 0.00360763 -0.234876 0.00125 216
1 0.124995 0.413822 0.00144708 0.0281826 -0.0152553 -0.300236 0.00125 217
1 0.581978 0.299089 0.00132834 0.016327 -0.0108826 -0.235497 0.00125 218
1 0.297423 0.595659 0.00179777 -0.0084969 -0.0112089 -0.0780057 0.00125 219
1 0.298349 0.58718 0.00127697 -0.00996939 -0.0349568 0.208462 0.00125 220
1 0.565948 0.142302 0.00132861 -0.00579253 -0.000814994 0.169739 0.00125 221
1 0.130023 0.380036 0.00162523 -0.0109571 0.00817403 -0.0929646 0.00125 222
1 0.045718 0.309998 0.00125437 -0.00687236 0.00187737 0.256921 0.00125 223
1 0.475119 0.555492 0.00178795 0.00250582 0.01111 -0.218326 0.00125 224
1 0.440471 0.239383 0.00241812 0.000381787 -0.00355082 -0.00326585 0.00125 225
1 0.0822502 0.300051 0.0013553 -0.000181168 0.000567698 -0.237823 0.00125 226
1 0.458402 0.552093 0.00152531 0.00100758 0.00366961 -0.231595 0.00125 227
1 0.438456 0.495827 0.00186439 -0.00143671 -0.000203387 -0.251357 0.00125 228
1 0.0256913 0.507351 0.00175863 -0.00357374 0.00861007 0.123834 0.00125 229
1 0.370004 0.209014 0.00123312 -0.00124515 -0.00503561 -0.0755338 0.00125 230
1 0.422423 0.193937 0.00130089 -0.00598205 -0.00269353 -0.058121 0.00125 231
1 0.351511 0.247273 0.00151685 -0.00809389 -0.00489328 0.136024 0.00125 232
1 0.12738 0.678893 0.00131376 0.00211778 0.00873616 0.177496 0.00125 233
1 0.428764 0.202658 0.0013876 0.00108647 0.0154935 -0.201236 0.00125 234
1 0.561893 0.260917 0.00147865 0.000809748 0.000669008 -0.0959622 0.00125 235
1 0.177404 0.529896 0.00126356 -0.0105567 -0.0091461 -0.230584 0.00125 236
1 0.236136 0.0235957 0.00145295 0.00154287 0.000153538 0.219085 0.00125 237
1 0.0252869 0.61268 0.00144455 0.00226594 -0.00105382 0.13663 0.00125 238
1 0.340639 0.502529 0.00167525 -0.00173242 -0.00426756 -0.224498 0.00125 239
1 0.0736071 0.647818 0.00247358 -0.0072971 0.0015568 -0.0355444 0.00125 240
1 0.122856 0.587119 0.00142914 0.0276713 0.00115267 0.230566 0.00125 241
1 0.405512 0.484272 0.00125346 0.000681921 0.00942379 0.243667 0.00125 242
1 0.497677 0.229515 0.00127321 -0.00581625 0.00303162 0.19019 0.00125 243
1 0.108745 0.126545 0.00130237 0.000109048 -0.00112578 -0.0647253 0.00125 244
1 0.61163 0.686883 0.00124784 0.00189879 0.000940668 -0.248174 0.00125 245
1 0.190624 0.28876 0.00127178 -0.00401055 0.0033742 -0.230876 0.00125 246
1 0.278944 0.596113 0.00144694 0.000883312 0.00688999 -0.300462 0.00125 247
1 0.580484 0.402126 0.0016159 0.0103895 -0.00237498 -0.238353 0.00125 248
1 0.0911369 0.211027 0.00130922 -0.00219085 0.00357992 -0.205784 0.00125 249
1 0.0636835 0.191036 0.00168456 -0.00252723 -0.00171151 -0.271395 0.00125 250
1 0.216059 0.581501 0.00143333 0.0034202 -0.00883004 0.218688 0.00125 251
1 0.579307 0.17157 0.00139378 0.00227213 0.0143825 -0.237233 0.00125 252
1 0.628661 0.24096 0.0014262 0.0188192 0.00906402 0.104209 0.00125 253
1 0.406588 0.0386242 0.00138172 -0.000338211 0.00530848 0.159446 0.00125 254
1 0.264781 0.103608 0.00179547 0.00312063 0.00119571 -0.0778234 0.00125 255
1 0.680049 0.288148 0.00158297 -0.0124845 0.00186811 -0.235019 0.00125 256
1 0.2654 0.279555 0.00170424 -0.000478995 -0.0151604 -0.225725 0.00125 257
1 0.176641 0.591878 0.00154261 -0.000121875 -0.00149173 -0.235706 0.00125 258
1 0.310372 0.687797 0.00139823 -0.00270088 0.00381042 -0.178474 0.00125 259
1 0.531391 0.610336 0.0017509 -0.000230937 0.00044979 0.117417 0.00125 260
1 0.416954 0.332333 0.0012661 0.0026181 0.00379345 -0.202511 0.00125 261
1 0.11071 0.615145 0.0016257 -0.00171256 -0.00688787 -0.091538 0.00125 262
1 0.450718 0.16318 0.00176137 0.00927311 0.00131636 0.170933 0.00125 263
1 0.423409 0.155592 0.00151862 0.00624489 -0.0104966 -0.195237 0.00125 264
1 0.462229 0.680694 0.0019696 -0.00827427 -0.0183394 -0.0781541 0.00125 265
1 0.255034 0.580589 0.00126904 0.00307256 0.018454 -0.220587 0.00125 266
1 0.334072 0.252637 0.00130433 -0.00163026 0.00492177 -0.231489 0.00125 267
1 0.0503423 0.116826 0.001474 -0.00542882 -0.0058668 -0.0965882 0.00125 268
1 0.375749 0.0778785 0.00123044 -0.00493771 -0.00386735 -0.176907 0.00125 269
1 0.330667 0.606753 0.00143221 -0.00312941 -0.0057481 0.140903 0.00125 270
1 0.0177412 0.627585 0.00124754 0.00281464 -0.0021403 -0.229534 0.00125 271
1 0.578199 0.668411 0.00241751 -0.00540316 -0.00758476 -0.0393834 0.00125 272
1 0.510532 0.197596 0.00126725 -0.00718017 -0.0202177 -0.230994 0.00125 273
1 0.180003 0.0155811 0.00175641 -0.00272395 -0.00789228 0.136323 0.00125 274
1 0.137896 0.172279 0.00171749 0.00400682 -0.00966186 0.0916052 0.00125 275
1 0.493626 0.368383 0.00173991 0.00205551 0.0112401 -0.0562365 0.00125 276
1 0.292676 0.052668 0.00158148 -0.0114805 0.0129418 0.0587217 0.00125 277
1 0.288803 0.254315 0.00134203 0.0182647 0.0245174 -0.238332 0.00125 278
1 0.253442 0.177445 0.00144125 0.00211333 0.00425458 -0.196766 0.00125 279
1 0.217453 0.449964 0.00147678 0.00535445 -0.00893766 -0.239258 0.00125 280
1 0.514729 0.476782 0.00142472 0.00381589 0.0151974 0.129181 0.00125 281
1 0.513385 0.120958 0.00176708 -0.00244981 0.00483335 -0.19939 0.00125 282
1 0.219684 0.60535 0.00128864 0.00866553 -0.00749141 -0.232592 0.00125 283
1 0.129555 0.309422 0.0012311 0.000414271 0.00791902 0.0689221 0.00125 284
1 0.522975 0.539248 0.00157117 0.0183215 0.00418088 -0.230158 0.00125 285
1 0.188376 0.0260958 0.00133855 -2.11746e-05 -0.0236329 -0.235255 0.00125 286
1 0.621179 0.302035 0.0015405 -0.0208662 0.0128925 -0.199079 0.00125 287
1 0.132448 0.248567 0.00133001 -0.056655 0.020001 -0.290616 0.00125 288
1 0.442366 0.528806 0.00158873 -0.0110999 0.00414864 0.0981765 0.00125 289
1 0.0690139 0.217987 0.00146336 -0.0115642 -0.0125397 -0.245488 0.00125 290
1 0.384123 0.520995 0.00150614 -0.00838712 -0.00723707 0.111456 0.00125 291
1 0.0550649 0.233673 0.00135227 -0.000483534 -0.0145362 -0.233523 0.00125 292
1 0.525947 0.500598 0.00186104 0.00109345 0.00883333 -0.209533 0.00125 293
1 0.0808493 0.00128074 0.00124353 -0.00107819 -0.00388412 0.242253 0.00125 294
1 0.60505 0.248559 0.00147586 -0.00598038 -0.00876539 -0.231877 0.00125 295
1 0.343212 0.267171 0.00132673 -3.37734e-05 -0.00959163 0.174302 0.00125 296
1 0.198701 0.179277 0.00194979 0.00543383 -0.00420944 -0.0111712 0.00125 297
1 0.644527 0.384827 0.00159208 -0.00161387 -0.00735504 0.153991 0.00125 298
1 0.114814 0.0356154 0.00148991 -0.00246589 0.00706791 0.123384 0.00125 299
1 0.200244 0.65761 0.00127022 0.00504602 -0.00381188 -0.202652 0.00125 300
1 0.405228 0.416408 0.00139352 0.0126746 0.0263922 -0.239531 0.00125 301
1 0.686821 0.388947 0.00145172 0.00318837 0.0149157 0.132452 0.00125 302
1 0.476128 0.240173 0.00154075 0.00831077 -0.00468765 -0.185751 0.00125 303
1 0.33708 0.648247 0.0013376 0.0167488 -0.00131752 -0.233435 0.00125 304
1 0.325895 0.296066 0.00147909 0.00749157 -0.000154133 -0.232755 0.00125 305
1 0.56533 0.579173 0.00194831 -0.010273 0.0180774 -0.198336 0.00125 306
1 0.0419746 0.373936 0.00171939 -0.000622862 0.000515147 0.102517 0.00125 307
1 0.584296 0.188192 0.00156298 0.00332801 0.0198955 -0.26126 0.00125 308
1 0.639006 0.359972 0.00132241 0.000694087 0.0220957 -0.240414 0.00125 309
1 0.0537725 0.27314 0.00240444 0.00566407 -0.000487075 -0.0478208 0.00125 310
1 0.0857996 0.0934088 0.00155477 0.00356802 0.00381011 -0.180514 0.00125 311
1 0.469073 0.676718 0.00125176 0.00331475 -0.00263326 -0.032226 0.00125 312
1 0.155747 0.64364 0.00123613 0.0114944 0.00211301 0.18669 0.00125 313
1 0.0275246 0.540486 0.00127804 0.0046236 0.000495504 -0.247143 0.00125 314
1 0.667375 0.250952 0.00158375 -0.013428 0.00601812 -0.178312 0.00125 315
1 0.0583896 0.5144 0.00181636 0.00750121 0.00663042 -0.214579 0.00125 316
1 0.380787 0.113391 0.00153268 -0.0052045 0.00661248 -0.282914 0.00125 317
1 0.611837 0.42652 0.00174991 0.00299903 0.00499933 0.117456 0.00125 318
1 0.534869 0.605837 0.00144502 -0.00520848 0.0127607 0.230601 0.00125 319
1 0.402828 0.402502 0.00137033 0.000910698 -0.00793809 0.1476 0.00125 320
1 0.211511 0.00589884 0.00133922 0.00494073 0.0189398 -0.240296 0.00125 321
1 0.0664151 0.537365 0.00152244 0.00842327 -0.00224691 -0.190964 0.00125 322
1 0.577296 0.0601108 0.00146299 -0.011585 0.0121848 -0.234192 0.00125 323
1 0.466847 0.039315 0.0013136 -0.0157171 0.0064763 -0.311523 0.00125 324
1 0.1785 0.269392 0.00127122 -0.00670147 -0.007737 -0.204065 0.00125 325
1 0.360993 0.458364 0.00238433 -0.00148898 -0.00706076 -0.0412509 0.00125 326
1 0.509584 0.390598 0.00127157 0.00343158 -0.00636261 -0.0194043 0.00125 327
1 0.237937 0.147883 0.00145077 -0.00405709 -0.0079197 0.20953 0.00125 328
1 0.211503 0.571662 0.00144638 -0.0112254 -0.00907006 0.133791 0.00125 329
1 0.571374 0.465332 0.0016529 -0.0139883 -0.0122064 -0.090642 0.00125 330
1 0.391807 0.533801 0.00126755 0.00635926 0.0157044 0.210272 0.00125 331
1 0.244158 0.00831392 0.00158734 0.0110871 0.00391587 -0.179735 0.00125 332
1 0.394211 0.496377 0.00126469 -0.00568182 0.00688636 0.164464 0.00125 333
1 0.301125 0.190774 0.00127691 -0.00410118 -0.00328339 0.250844 0.00125 334
1 0.124491 0.441887 0.00156475 0.0028032 0.00109796 -0.182397 0.00125 335
1 0.425348 0.123522 0.00246949 -0.00182923 0.00915218 0.0356415 0.00125 336
1 0.148232 0.654924 0.00146139 -0.0130885 0.00105833 -0.232079 0.00125 337
1 0.227737 0.122552 0.00125902 0.0109697 0.0166467 -0.229242 0.00125 338
1 0.420289 0.0155138 0.00186302 0.000809228 -0.00539605 -0.0747959 0.00125 339
1 0.620993 0.354812 0.00126678 0.00441296 0.00276411 -0.029221 0.00125 340
1 0.523078 0.249605 0.0017616 -0.00636226 -0.00631211 -0.0813681 0.00125 341
1 0.189027 0.467754 0.00177144 0.0141509 -0.00837798 0.0882886 0.00125 342
1 0.566834 0.44371 0.00125957 0.00187492 0.00443704 -0.230957 0.00125 343
1 0.310952 0.415945 0.00198929 -0.0212104 0.020843 -0.227957 0.00125 344
1 0.0212035 0.0469615 0.00146759 -0.0143996 -0.0105253 -0.228117 0.00125 345
1 0.230972 0.20029 0.00245058 -0.00834732 0.00335436 -0.055814 0.00125 346
1 0.295991 0.214998 0.00206811 -0.000629242 -0.00105712 -0.0587715 0.00125 347
1 0.291005 0.668378 0.00243503 -0.00465502 0.00209804 -0.0380465 0.00125 348
1 0.220692 0.456627 0.0014631 -5.97911e-05 0.0111001 0.249681 0.00125 349
1 0.442043 0.619495 0.00132782 -0.00614494 0.00308225 -0.204807 0.00125 350
1 0.125464 0.622049 0.00126466 0.0221743 -0.00809123 -0.232794 0.00125 351
1 0.574245 0.506706 0.00177758 0.00839888 0.00566189 0.0876583 0.00125 352
1 0.0805581 0.448383 0.00150923 -0.0193114 -0.0189715 -0.232304 0.00125 353
1 0.141811 0.537093 0.00126524 -0.00907202 -0.0101811 -0.234199 0.00125 354
1 0.442366 0.0798876 0.00161703 0.0081992 -0.0150297 -0.23335 0.00125 355
1 0.203494 0.202974 0.00244844 -0.0161145 0.00851517 -0.0341137 0.00125 356
1 0.357303 0.297392 0.00124113 0.00179181 0.00251612 -0.210857 0.00125 357
1 0.0264289 0.672325 0.00133805 -0.00810675 -0.0111021 0.173934 0.00125 358
1 0.455885 0.582356 0.00132692 -0.00146701 -0.0117992 0.172814 0.00125 359
1 0.480055 0.447177 0.00161326 -0.00982861 0.00768747 -0.235545 0.00125 360
1 0.129456 0.00327056 0.00245041 0.0131557 0.00483624 -0.0463946 0.00125 361
1 0.250647 0.322487 0.00165155 0.00284328 0.00231055 0.0551772 0.00125 362
1 0.0179803 0.175362 0.00225033 -0.0277661 0.00925754 -0.0500021 0.00125 363
1 0.287824 0.228591 0.00132902 0.00103215 -0.00593635 0.175563 0.00125 364
1 0.454372 0.24162 0.00188999 -0.000114729 0.000458694 -0.0829662 0.00125 365
1 0.471329 0.263111 0.00228028 0.000397146 -0.00936435 0.0213872 0.00125 366
1 0.232202 0.0197979 0.00176673 -0.00409475 0.00178219 0.151664 0.00125 367
1 0.185126 0.66561 0.00132151 -0.00611442 0.0179473 -0.228178 0.00125 368
1 0.375325 0.635624 0.00146596 0.00645208 0.00503655 0.130303 0.00125 369
1 0.51818 0.00102422 0.00149605 0.0280764 0.00630054 0.120614 0.00125 370
1 0.509916 0.183478 0.00128902 -0.00478524 0.00584939 0.165932 0.00125 371
1 0.655716 0.392445 0.00141304 -0.00538324 -0.00275107 0.169618 0.00125 372
1 0.661166 0.268847 0.00150379 -0.0118856 0.00376157 0.114519 0.00125 373
1 0.366732 0.331025 0.00130763 0.00798306 -0.000247197 -0.229935 0.00125 374
1 0.639961 0.617512 0.0023743 -0.00203404 -0.00601044 -0.0418765 0.00125 375
1 0.0090934 0.22162 0.00173614 0.000108035 0.00598198 -0.0840428 0.00125 376
1 0.577424 0.687122 0.00233319 0.00814931 -0.021639 -0.0619608 0.00125 377
1 0.406687 0.502605 0.00153724 0.00157881 0.00938463 0.106125 0.00125 378
1 0.404543 0.668058 0.0020458 -0.005642 -0.00162871 -0.00336183 0.00125 379
1 0.4371 0.580992 0.00238624 0.00765377 -0.00499435 -0.0417659 0.00125 380
1 0.63335 0.552329 0.00182302 -0.00634373 -0.00134604 -0.197344 0.00125 381
1 0.51896 0.332321 0.00169749 -0.000569426 0.00335769 0.0693972 0.00125 382
1 0.675849 0.481126 0.00144681 0.000468674 -0.00805328 -0.240473 0.00125 383
1 0.184814 0.219166 0.00140118 0.0152758 -0.0115732 -0.238944 0.00125 384
1 0.155657 0.149033 0.00173262 0.000994871 -0.0108846 -0.0824182 0.00125 385
1 0.159018 0.440724 0.0021986 0.00889133 -0.00188354 -0.0189019 0.00125 386
1 0.560329 0.539862 0.00129312 -0.00458562 0.0018804 0.0123205 0.00125 387
1 0.494857 0.0952938 0.00123045 -0.00400565 0.00170931 -0.0472897 0.00125 388
1 0.204338 0.676169 0.00186669 -0.000925462 0.00399991 -0.0736686 0.00125 389
1 0.282331 0.596132 0.00135046 0.0012683 -0.000228244 0.161362 0.00125 390
1 0.308465 0.160205 0.00179951 -0.00412419 0.000642266 -0.21696 0.00125 391
1 0.261925 0.0289797 0.00231489 -0.00224509 -0.00957425 -0.0454413 0.00125 392
1 0.602031 0.10366 0.0014125 0.00442589 -0.00910187 0.145591 0.00125 393
1 0.0783681 0.427958 0.00150822 -0.0126864 0.0023074 0.116074 0.00125 394
1 0.126586 0.628801 0.00124006 -0.00470706 -0.00473837 -0.206364 0.00125 395
1 0.227513 0.00811617 0.00131794 -0.00145615 -0.00107446 0.202846 0.00125 396