ITEM: TIMESTEP
1000000
ITEM: NUMBER OF ATOMS
10000
ITEM: BOX BOUNDS pp pp ff
0.0000000000000000e+00 5.0694699499999996e-01
0.0000000000000000e+00 5.0694699499999996e-01
-1.2500000000000001e-02 1.2500000000000001e-02
ITEM: ATOMS type x y z vx vy vz radius id
1 0.108498 0.103484 0.00151465 0.0122896 0.00822417 0.113718 0.00125 1
1 0.0204706 0.129335 0.00135847 -0.00130996 -0.000470007 -0.237512 0.00125 2
1 0.424718 0.282958 0.002021 -0.0218651 -0.00246491 -0.18723 0.00125 3
1 0.245107 0.443838 0.00187307 0.00066017 -0.0157291 -0.0769234 0.00125 4
1 0.217437 0.0767493 0.00249631 -0.0146499 -0.00733049 -0.0713211 0.00125 5
1 0.0298522 0.318362 0.00126099 -0.000578533 0.0040393 0.264671 0.00125 6
1 0.473662 0.435085 0.00159164 -0.0106398 -0.00859156 -0.184598 0.00125 7
1 0.427533 0.0662763 0.0012749 0.00520465 -0.00832221 -0.231333 0.00125 8
1 0.264423 0.117755 0.00226707 -0.0181407 -0.0202481 -0.136402 0.00125 9
1 0.205288 0.161456 0.00137808 0.00478207 -0.0068685 0.224229 0.00125 10
1 0.296369 0.172001 0.00154199 0.0133376 -0.00140627 0.105318 0.00125 11
1 0.359559 0.433406 0.00164515 -0.0109609 0.00191238 -0.234963 0.00125 12
1 0.449706 0.102428 0.00147655 0.0129653 -0.00408012 -0.191838 0.00125 13
1 0.39209 0.218704 0.00135045 0.00217389 0.0115249 0.0524312 0.00125 14
1 0.379377 0.294293 0.00124403 0.0158977 0.00362857 -0.214754 0.00125 15
1 0.138499 0.138893 0.00147728 -0.00325102 0.0103049 0.0793255 0.00125 16
1 0.450947 0.297088 0.00144372 -0.0103248 0.00870472 0.133801 0.00125 17
1 0.493573 0.262302 0.00250005 0.0166231 -0.017211 -0.0283559 0.00125 18
1 0.140549 0.0935135 0.00176833 0.00471913 0.000978688 0.146526 0.00125 19
1 0.412012 0.394685 0.00127044 -0.00343006 -0.00632569 0.190214 0.00125 20
1 0.0785837 0.450024 0.00156544 0.00176787 -0.00915754 -0.236103 0.00125 21
1 0.163536 0.243908 0.00216706 0.00734198 0.00756248 0.013591 0.00125 22
1 0.381967 0.433153 0.00182134 0.00772085 -0.00665998 -0.1639 0.00125 23
1 0.343639 0.134598 0.00206061 0.0194692 0.00740583 -0.0827809 0.00125 24
1 0.0367019 0.132951 0.00126148 -0.0118352 -0.0136366 -0.30371 0.00125 25
1 0.23497 0.463758 0.00132837 -0.0122819 -0.00258268 -0.233747 0.00125 26
1 0.262047 0.302584 0.00139085 0.00774577 0.00769823 0.152591 0.00125 27
1 0.0957586 0.0740044 0.00134639 -0.00398587 0.00430125 0.195038 0.00125 28
1 0.269967 0.165842 0.00125513 -0.00209749 0.00636698 0.181172 0.00125 29
1 0.441991 0.0360911 0.00137638 -0.0241163 0.027924 -0.193823 0.00125 30
1 0.219907 0.262481 0.00164692 -0.0250754 -0.0158091 -0.0909888 0.00125 31
1 0.0521313 0.299466 0.00147981 -0.0163271 0.00818879 -0.238945 0.00125 32
1 0.321266 0.158161 0.00165873 0.00486248 -0.00468122 -0.229925 0.00125 33
1 0.393923 0.0188523 0.00160054 0.00910454 -0.00329297 -0.0878917 0.00125 34
1 0.4401 0.41561 0.00144539 0.00198272 0.0213298 -0.179351 0.00125 35
1 0.224991 0.233036 0.0012258 0.00114028 0.00410865 0.0565871 0.00125 36
1 0.282355 0.0913164 0.00223606 0.000459372 -0.0160569 -0.142991 0.00125 37
1 0.304692 0.476977 0.00196409 -0.0129721 -0.00451966 -0.233501 0.00125 38
1 0.506413 0.317412 0.00128427 0.0110554 0.00836738 0.207624 0.00125 39
1 0.102729 0.103954 0.00123576 0.00377556 0.00384704 0.224339 0.00125 40
1 0.393144 0.368817 0.00149143 0.0156071 0.00651099 0.163024 0.00125 41
1 0.174575 0.371889 0.00130197 -0.00130711 0.00943898 -0.205998 0.00125 42
1 0.120113 0.345162 0.00163978 0.0202659 0.0117046 -0.0902316 0.00125 43
1 0.111436 0.165755 0.00139897 0.00165107 0.00235984 -0.240358 0.00125 44
1 0.297485 0.328912 0.0014556 -0.0147524 0.00472986 0.218825 0.00125 45
1 0.445584 0.341044 0.00142568 -0.00931464 0.0227753 0.139111 0.00125 46
1 0.26803 0.282138 0.00155654 -0.00172128 -0.0106329 0.102775 0.00125 47
1 0.218775 0.225632 0.00191074 0.000254885 0.00967939 -0.0505249 0.00125 48
1 0.244779 0.100536 0.00133929 0.0124091 0.0112044 0.169153 0.00125 49
1 0.0208629 0.392802 0.0012947 0.00308944 0.00750127 -0.228275 0.00125 50
1 0.195234 0.0565716 0.00125129 0.0111425 -0.00239652 -0.209347 0.00125 51
1 0.41038 0.095706 0.00158033 -0.0129277 0.000488677 -0.229076 0.00125 52
1 0.352981 0.40742 0.00130063 -0.0137334 0.0101218 0.184987 0.00125 53
1 0.0462698 0.204483 0.00139818 0.00805593 -0.00326069 -0.241826 0.00125 54
1 0.000160698 0.368133 0.00139292 0.0168348 -0.0367729 0.247666 0.00125 55
1 0.0367322 0.434566 0.00148423 -0.0123034 -0.031566 -0.23201 0.00125 56
1 0.00173773 0.157465 0.00225463 0.00601019 -0.011582 -0.0485849 0.00125 57
1 0.420645 0.184337 0.00133098 0.0181528 0.0182172 0.175054 0.00125 58
1 0.307739 0.0181753 0.0013556 0.0172106 0.00566014 -0.220794 0.00125 59
1 0.436697 0.0917299 0.00201596 -0.0235908 -0.00899455 -0.197482 0.00125 60
1 0.120848 0.0553418 0.00127993 -0.00743375 0.002014 -0.232163 0.00125 61
1 0.0297757 0.134745 0.00195487 -0.00690628 0.00153625 -0.20027 0.00125 62
1 0.128041 0.474878 0.00213057 0.00131392 0.0299117 -0.168632 0.00125 63
1 0.0911292 0.206881 0.00172276 -0.00647139 -0.0040722 0.179138 0.00125 64
1 0.236868 0.403153 0.00237632 -0.0118517 -0.0121914 -0.120459 0.00125 65
1 0.350653 0.409044 0.00136094 -0.00473151 -0.00580976 -0.2269 0.00125 66
1 0.503866 0.137066 0.00154735 -0.0146905 0.00950811 -0.229991 0.00125 67
1 0.274057 0.206952 0.00140734 -0.0140204 -0.00998822 0.220224 0.00125 68
1 0.291905 0.33747 0.00125424 0.0149825 0.00123018 -0.230625 0.00125 69
1 0.451753 0.429002 0.00154134 0.00815199 -0.0228904 -0.176233 0.00125 70
1 0.206868 0.362448 0.00128888 0.0398543 0.0197222 -0.224542 0.00125 71
1 0.0444893 0.322178 0.00138357 0.00532563 0.024071 -0.237949 0.00125 72
1 0.497428 0.162121 0.00183279 0.0121065 -0.00596787 -0.253398 0.00125 73
1 0.263123 0.373819 0.00164548 0.00740794 0.00151493 0.093544 0.00125 74
1 0.199192 0.233104 0.00150562 -0.00427323 0.00199647 -0.246037 0.00125 75
1 0.0751953 0.487729 0.0020165 0.00647667 -0.0079423 -0.0774783 0.00125 76
1 0.0629162 0.238402 0.00140483 0.00187223 -0.00669949 0.213463 0.00125 77
1 0.151867 0.390263 0.00157361 0.00886344 -0.0121701 0.098569 0.00125 78
1 0.404695 0.000956725 0.00180856 -0.00839161 -0.0108513 0.1436 0.00125 79
1 0.45445 0.0206199 0.0014474 -0.0121083 -0.0271616 0.232698 0.00125 80
1 0.348438 0.222159 0.00133082 -0.0130078 0.00201564 0.231632 0.00125 81
1 0.366574 0.481152 0.00233161 -0.000317264 -0.0190423 0.0251844 0.00125 82
1 0.150852 0.348915 0.00134784 0.000423723 -0.00502128 0.224609 0.00125 83
1 0.095191 0.172935 0.00162056 -0.00645531 -0.00406298 -0.0924458 0.00125 84
1 0.0798108 0.130182 0.00220338 -0.00983649 0.00021842 -0.184772 0.00125 85
1 0.39237 0.135263 0.00162111 -0.00549391 -0.00793016 -0.232863 0.00125 86
1 0.0775378 0.314807 0.00124688 -0.0187556 -0.0164182 -0.219168 0.00125 87
1 0.247051 0.177006 0.00132154 -0.0197093 0.019034 -0.239238 0.00125 88
1 0.226984 0.347498 0.00122989 0.00123574 0.0141359 0.0903918 0.00125 89
1 0.29912 0.444286 0.00127562 0.000810175 -0.000214095 -0.253984 0.00125 90
1 0.324046 0.0904383 0.0017391 -0.00485957 -0.00415163 0.0713953 0.00125 91
1 0.492537 0.123939 0.00151153 -0.00708755 -0.0041258 0.11516 0.00125 92
1 0.304823 0.0597835 0.0022745 -0.00372295 0.00616239 -0.165152 0.00125 93
1 0.151428 0.482753 0.00148491 -0.000772887 0.00480051 0.0754741 0.00125 94
1 0.426613 0.268345 0.00127513 0.023938 -0.0198797 0.240123 0.00125 95
1 0.408354 0.492895 0.00231405 0.00176117 -0.00510532 -0.051109 0.00125 96
1 0.0927554 0.385145 0.00160073 -0.00782141 -0.00243401 -0.284572 0.00125 97
1 0.184507 0.0875718 0.00130967 0.0259634 -0.00406395 -0.225269 0.00125 98
1 0.265575 0.0638697 0.00141388 0.00840835 -0.00206355 -0.239865 0.00125 99
1 0.359306 0.0517281 0.00134424 0.00268202 0.0186403 -0.237666 0.00125 100
1 0.467149 0.181877 0.0012317 -0.00447116 -0.00591022 0.0759719 0.00125 101
1 0.275798 0.348975 0.00159455 -0.0130526 -0.00998854 0.140293 0.00125 102
1 0.467889 0.214797 0.0012509 -0.000789714 0.000327433 -0.00531122 0.00125 103
1 0.168072 0.0539526 0.00162418 0.00365533 -0.00317186 0.092553 0.00125 104
1 0.314155 0.465681 0.0014665 0.000621007 -0.00178991 -0.298551 0.00125 105
1 0.283087 0.33741 0.00160378 -0.00588808 -7.97131e-05 -0.0380546 0.00125 106
1 0.455255 0.399244 0.00158171 -0.0124125 -0.00381548 -0.230965 0.00125 107
1 0.449377 0.181155 0.00179947 -0.0420906 0.000169154 -0.258058 0.00125 108
1 0.463522 0.40629 0.00123871 0.00819231 -0.00956081 -0.195041 0.00125 109
1 0.320563 0.350779 0.00163989 -0.00881316 0.016139 -0.0918121 0.00125 110
1 0.235916 0.445618 0.00129717 0.00077759 0.0251935 0.268841 0.00125 111
1 0.479904 0.504677 0.00135195 -0.00138505 0.0124031 0.150143 0.00125 112
1 0.506539 0.266636 0.00189602 -0.00363962 -0.0102664 -0.0105411 0.00125 113
1 0.215341 0.482434 0.00148179 0.00829859 0.0152069 0.106781 0.00125 114
1 0.00583249 0.098167 0.00142388 0.02044 -0.0158396 0.139093 0.00125 115
1 0.5026 0.158383 0.00139884 0.00807926 0.00419856 -0.207474 0.00125 116
1 0.112985 0.486745 0.00148504 0.0128977 -0.0129532 0.210246 0.00125 117
1 0.217875 0.200717 0.00140849 0.00369542 0.0158056 0.218343 0.00125 118
1 0.236201 0.0570332 0.0015871 0.00204302 -0.00799443 -0.234826 0.00125 119
1 0.181216 0.321908 0.00145258 0.0137593 0.0101806 -0.239575 0.00125 120
1 0.049989 0.327195 0.00232544 0.00325787 0.0189066 -0.0657493 0.00125 121
1 0.380864 0.22742 0.0020035 -0.0130197 0.00359639 -0.0781631 0.00125 122
1 0.396248 0.279042 0.00200874 0.00939661 -0.00331816 -0.188942 0.00125 123
1 0.0211805 0.0145208 0.00128915 -0.0104863 -0.00771544 0.185488 0.00125 124
1 0.230476 0.0875562 0.00169437 -0.00519588 0.00256737 -0.272849 0.00125 125
1 0.122064 0.400629 0.00140158 0.0117578 0.0213999 -0.231098 0.00125 126
1 0.282864 0.0830393 0.00155481 -0.00294896 -0.0094287 -0.283819 0.00125 127
1 0.0730608 0.207069 0.00164737 0.00638104 -0.00253496 0.0527432 0.00125 128
1 0.018771 0.100408 0.00172702 0.00669561 -0.00320649 -0.0422034 0.00125 129
1 0.0428014 0.152606 0.00153948 -0.000908781 0.0108026 -0.104658 0.00125 130
1 0.220893 0.435201 0.00181572 0.00708063 -0.010659 -0.215156 0.00125 131
1 0.231258 0.0539569 0.00167762 0.0130891 0.000923484 0.0582697 0.00125 132
1 0.359261 0.296444 0.00124523 -0.00598889 -0.00626316 0.252425 0.00125 133
1 0.466559 0.154638 0.00158143 0.0112122 0.00645255 -0.178744 0.00125 134
1 0.230255 0.388549 0.00126464 0.0341745 0.000682453 -0.307345 0.00125 135
1 0.075435 0.443449 0.00162346 0.005784 -0.00404294 -0.24381 0.00125 136
1 0.484744 0.0202016 0.00144413 0.00717796 0.00256957 0.134719 0.00125 137
1 0.239107 0.310413 0.0012316 -0.0108643 0.00719918 0.127022 0.00125 138
1 0.493399 0.429595 0.00241734 -0.00790538 0.0115109 -0.0389685 0.00125 139
1 0.402949 0.408495 0.00239195 0.0252511 -0.0241926 -0.0582489 0.00125 140
1 0.392928 0.460727 0.00164959 -0.00500375 0.0125599 -0.0934221 0.00125 141
1 0.0657957 0.492692 0.00139409 -0.00958194 0.0393114 0.2391 0.00125 142
1 0.453268 0.290698 0.00137552 0.0154116 0.00790147 0.233494 0.00125 143
1 0.109031 0.441499 0.00184231 -0.0401589 0.080718 -0.121512 0.00125 144
1 0.231002 0.0781056 0.00129024 -0.0180012 -0.0119123 0.252439 0.00125 145
1 0.364001 0.304443 0.00129058 0.00710181 -0.00293554 -0.232714 0.00125 146
1 0.194072 0.251565 0.00162392 0.00884519 -0.00782214 -0.236547 0.00125 147
1 0.460272 0.229235 0.00179575 0.0102803 -0.000703803 -0.0784748 0.00125 148
1 0.323056 0.143647 0.00130752 -0.00199706 0.00132265 -0.23448 0.00125 149
1 0.434914 0.0038388 0.00162346 -0.0111233 -0.00381473 -0.23197 0.00125 150
1 0.040172 0.195053 0.00152932 -0.00844963 -0.0016528 -0.283121 0.00125 151
1 0.0164728 0.404625 0.00169275 0.00589471 -0.00659471 -0.0855902 0.00125 152
1 0.282371 0.225067 0.00162433 0.0126559 0.0232945 -0.181622 0.00125 153
1 0.0529978 0.422659 0.00150226 -0.0352831 -0.00120637 -0.198581 0.00125 154
1 0.267797 0.181627 0.00172377 -0.00120509 0.00413923 -0.227815 0.00125 155
1 0.397335 0.315456 0.00138774 -0.00534148 0.00760388 0.156891 0.00125 156
1 0.139648 0.0389062 0.00130867 -0.00185182 0.0165531 -0.221009 0.00125 157
1 0.158029 0.255104 0.00136358 0.0143293 0.0154961 -0.238835 0.00125 158
1 0.178451 0.329187 0.00202801 -0.0139042 0.00799334 -0.0608124 0.00125 159
1 0.353226 0.362885 0.00148701 -0.00860531 0.025214 -0.228765 0.00125 160
1 0.436522 0.323878 0.00173715 0.0111428 -0.00307502 0.179242 0.00125 161
1 0.0785284 0.418219 0.00171278 0.011798 -0.000421463 -0.084858 0.00125 162
1 0.493116 0.381973 0.0016117 -0.00402839 -0.0025695 0.0817624 0.00125 163
1 0.450441 0.0629487 0.00146593 -0.00776884 -0.0222599 -0.242236 0.00125 164
1 0.467788 0.360067 0.0014665 -0.0046342 -0.00403268 0.125103 0.00125 165
1 0.0445536 0.424962 0.00166496 0.00379472 -0.00430155 -0.171567 0.00125 166
1 0.174019 0.405755 0.00126222 0.00293198 0.00565517 0.190422 0.00125 167
1 0.255093 0.0402109 0.00161309 0.0182671 0.00681285 0.051893 0.00125 168
1 0.382353 0.47203 0.00142649 -0.0119173 -0.0152599 0.245015 0.00125 169
1 0.160314 0.0624266 0.00151481 0.00501168 -0.00154763 -0.0879487 0.00125 170
1 0.0295969 0.189147 0.0012404 0.0109562 -0.00722201 -0.206574 0.00125 171
1 0.309114 0.301134 0.00144557 -0.00282457 0.0058609 0.228465 0.00125 172
1 0.168888 0.326196 0.00128036 0.00374783 0.0116893 -0.219293 0.00125 173
1 0.019345 0.0969967 0.00152785 0.00522582 0.0010679 -0.236918 0.00125 174
1 0.365891 0.172179 0.00161029 0.0143347 -0.00406744 -0.22873 0.00125 175
1 0.066565 0.0807563 0.00127633 0.00613291 -0.0127748 0.194695 0.00125 176
1 0.245578 0.455733 0.00124023 -0.0195866 0.000124532 -0.214114 0.00125 177
1 0.0816991 0.495255 0.00138953 -0.000861601 0.00705414 0.223066 0.00125 178
1 0.161831 0.324662 0.00134352 -0.000755926 0.00346815 -0.274178 0.00125 179
1 0.306405 0.429425 0.00138633 -0.00864767 0.0117594 -0.201129 0.00125 180
1 0.304503 0.496141 0.00137617 0.00312539 0.0115715 -0.239136 0.00125 181
1 0.268512 0.00567845 0.00139136 0.000424908 -0.000758463 -0.24605 0.00125 182
1 0.302739 0.0899145 0.00132982 0.0102672 -0.00370309 -0.22555 0.00125 183
1 0.464523 0.193938 0.00122939 0.00379786 -0.00322726 0.131885 0.00125 184
1 0.473064 0.281032 0.00130814 0.0156648 0.000227088 0.180508 0.00125 185
1 0.020097 0.360756 0.00177659 0.000247065 0.00297972 0.131402 0.00125 186
1 0.480197 0.246145 0.00164572 0.00302158 -0.00691213 -0.234696 0.00125 187
1 0.225408 0.135867 0.00176718 0.0274616 0.00756569 0.141272 0.00125 188
1 0.469284 0.141575 0.0014811 -0.00141956 -0.00152941 -0.238268 0.00125 189
1 0.402826 0.217975 0.00148389 -0.00361685 -0.00570042 -0.199918 0.00125 190
1 0.273591 0.0486127 0.00154254 0.0130803 -0.0224027 -0.232529 0.00125 191
1 0.280244 0.0499217 0.00237899 -0.00941712 -0.0022493 -0.0473762 0.00125 192
1 0.295116 0.460398 0.00136091 0.0117504 0.00264969 -0.230391 0.00125 193
1 0.281681 0.408146 0.00135752 -0.00556727 -0.00745356 0.185508 0.00125 194
1 0.0396194 0.0782897 0.00148506 -0.00573058 0.00576583 -0.237796 0.00125 195
1 0.191659 0.0329154 0.00145677 0.0120079 0.0195224 0.133595 0.00125 196
1 0.184197 0.31111 0.00198553 -0.0116156 -0.00904949 -0.066986 0.00125 197
1 0.407475 0.324654 0.00179198 -0.0246023 0.00444317 -0.0789197 0.00125 198
1 0.117888 0.0933094 0.00124763 -0.00561949 -0.0211155 -0.233462 0.00125 199
1 0.367314 0.210784 0.00143516 -0.0018612 0.0157243 0.221273 0.00125 200
1 0.0141369 0.185561 0.00148974 -0.00364694 0.0124402 -0.239369 0.00125 201
1 0.170521 0.169479 0.00166918 -0.00339876 -0.0067233 -0.225457 0.00125 202
1 0.186725 0.436364 0.00154449 -0.0147655 -0.00789806 0.0567928 0.00125 203
1 0.29344 0.228269 0.00139035 -0.00584121 0.00343192 -0.229271 0.00125 204
1 0.352297 0.321913 0.00145046 -0.00983615 0.0141895 0.218968 0.00125 205
1 0.452552 0.173977 0.00247906 0.00405216 0.00137315 -0.0409814 0.00125 206
1 0.496263 0.363881 0.00125657 0.00897485 0.00909278 0.212328 0.00125 207
1 0.330308 0.310381 0.00127104 0.00507208 0.00882559 0.208074 0.00125 208
1 0.266993 0.190625 0.00133124 0.00738139 0.00478919 -0.253514 0.00125 209
1 0.276199 0.47911 0.00190205 -0.0124915 0.00417288 -0.204613 0.00125 210
1 0.25605 0.367821 0.00125729 0.00773588 -0.0211126 -0.224548 0.00125 211
1 0.401489 0.275642 0.00151372 0.0180999 0.0282921 0.200474 0.00125 212
1 0.288906 0.48601 0.00137585 -0.0015294 -0.00688794 0.159532 0.00125 213
1 0.328713 0.42919 0.00230259 0.0139344 -0.0153309 -0.127207 0.00125 214
1 0.264897 0.383372 0.00145099 0.0116737 0.0238083 0.22378 0.00125 215
1 0.25408 0.443586 0.00237262 -0.00544535 -0.0115848 -0.0425554 0.00125 216
1 0.475742 0.109881 0.00139469 0.00273044 -0.0105925 -0.0954965 0.00125 217
1 0.29361 0.32134 0.00138554 -0.0194674 -0.00694308 0.161885 0.00125 218
1 0.186579 0.39029 0.00134154 0.00128945 -0.0252435 -0.235531 0.00125 219
1 0.158996 0.472155 0.00147345 -0.00162255 0.0270157 0.13787 0.00125 220
1 0.257176 0.0655725 0.00155345 0.0238955 0.00712684 -0.288857 0.00125 221
1 0.246525 0.266518 0.00127058 -0.00427612 -0.0252053 -0.224136 0.00125 222
1 0.349348 0.4705 0.00173924 -0.0292236 0.00667708 0.0810357 0.00125 223
1 0.496276 0.402728 0.00143918 -0.00676937 -0.00478649 0.139354 0.00125 224
1 0.325468 0.23762 0.00132634 -0.00612936 0.0176355 0.19297 0.00125 225
1 0.468465 0.177346 0.00128241 0.0156823 0.00753213 0.186879 0.00125 226
1 0.182795 0.0911541 0.00147891 0.00043335 -0.00448065 -0.237492 0.00125 227
1 0.233791 0.372067 0.00211273 0.0600765 -0.0088957 0.00175173 0.00125 228
1 0.275859 0.435517 0.0013206 0.0280736 -0.00576279 0.230729 0.00125 229
1 0.0880468 0.372311 0.00122905 -0.00495379 0.0118942 -0.0409089 0.00125 230
1 0.422155 0.143193 0.00156343 -0.0182029 0.0172455 0.105118 0.00125 231
1 0.2796 0.0448294 0.00125164 0.0436462 0.0316177 -0.278266 0.00125 232
1 0.171099 0.261872 0.00201321 -0.00494948 -0.00503315 -0.064311 0.00125 233
1 0.421726 0.123922 0.00136516 -0.000244185 -0.00363172 -0.277188 0.00125 234
1 0.199791 0.26766 0.00139726 0.00219286 0.0199724 0.154499 0.00125 235
1 0.425291 0.426129 0.00129211 0.00566025 0.00309111 -0.232179 0.00125 236
1 0.322566 0.125483 0.00165808 0.00711068 0.0202348 0.0739239 0.00125 237
1 0.045285 0.342108 0.00224422 0.00793171 0.0193587 -0.169363 0.00125 238
1 0.47775 0.205854 0.00149855 -0.00646144 0.0085462 -0.22984 0.00125 239
1 0.275195 0.468031 0.00163339 -0.00287599 0.00330385 -0.235352 0.00125 240
1 0.266135 0.138606 0.00132515 -0.00233871 -0.00834745 0.169637 0.00125 241
1 0.341331 0.386212 0.00167758 -0.0150498 0.0143715 -0.228651 0.00125 242
1 0.300428 0.316877 0.00242637 0.00427639 0.0033544 -0.111576 0.00125 243
1 0.482191 0.176049 0.00183968 -0.0241347 -0.00838771 -0.0471591 0.00125 244
1 0.041243 0.216639 0.00123658 0.00578142 0.00693696 -0.177677 0.00125 245
1 0.279643 0.209318 0.00158233 -0.0406981 -0.0252506 0.1463 0.00125 246
1 0.014997 0.459025 0.00132116 -0.000788457 -0.000860855 0.20213 0.00125 247
1 0.445853 0.0984663 0.00152013 -0.00784842 0.0239255 0.136246 0.00125 248
1 0.294594 0.363117 0.00164894 -0.0264212 -0.0075706 -0.0922735 0.00125 249
1 0.270982 0.0879152 0.00124092 0.00798143 -0.0130532 0.25875 0.00125 250
1 0.0856149 0.161266 0.00125101 -0.00029975 0.00133203 -0.227891 0.00125 251
1 0.0929669 0.501879 0.0016541 -0.0143251 -0.00922811 -0.084279 0.00125 252
1 0.13741 0.0280554 0.00215507 -0.0153778 0.00235356 -0.172116 0.00125 253
1 0.504233 0.346862 0.00201528 -0.00141286 0.00136781 -0.191181 0.00125 254
1 0.167028 0.268134 0.00149345 -0.00825491 -0.012335 0.0730646 0.00125 255
1 0.454881 0.420064 0.00122918 -0.00121052 0.0047414 0.0423009 0.00125 256
1 0.230598 0.0586536 0.00154473 -0.0121983 0.0110678 0.152371 0.00125 257
1 0.039526 0.360827 0.00148531 -0.0158708 -0.00305295 -0.2324 0.00125 258
1 0.450908 0.253381 0.00151203 -0.00407055 -0.00686065 -0.190139 0.00125 259
1 0.270454 0.150059 0.00138747 0.00593241 -0.00650158 -0.200346 0.00125 260
1 0.25173 0.0531526 0.00190626 0.000241606 -0.0122291 -0.0840483 0.00125 261
1 0.446494 0.072573 0.00154016 0.00143496 0.0166835 -0.255398 0.00125 262
1 0.354787 0.219068 0.00129982 0.00551471 0.00483311 0.199616 0.00125 263
1 0.397015 0.246639 0.00236016 0.0126806 0.0113642 -0.0420909 0.00125 264
1 0.266827 0.0988687 0.00146789 -0.00302717 0.00239949 -0.1829 0.00125 265
1 0.343094 0.00532587 0.00235051 -0.0221855 -0.00766076 -0.141977 0.00125 266
1 0.259932 0.427429 0.00169567 -0.00657407 -0.00856014 0.0643423 0.00125 267
1 0.211215 0.0975573 0.00170247 0.00341941 0.00749749 -0.0825789 0.00125 268
1 0.00202844 0.00302017 0.0012644 0.0110358 -0.0295884 0.110538 0.00125 269
1 0.310536 0.424373 0.00135006 0.00438475 0.0177177 0.166084 0.00125 270
1 0.342317 0.0668986 0.00127932 0.0159936 -0.000184549 -0.232817 0.00125 271
1 0.202106 0.319866 0.0012332 0.000409898 0.00358004 0.118408 0.00125 272
1 0.212231 0.4401 0.00129974 0.00622905 0.000740891 -0.219163 0.00125 273
1 0.128717 0.027446 0.00135555 0.00366087 0.01017 0.133882 0.00125 274
1 0.245478 0.283021 0.00127147 0.017864 0.0101876 0.190656 0.00125 275
1 0.0776362 0.0459179 0.00130989 -0.0149008 0.0293321 -0.235843 0.00125 276
1 0.161767 0.0856001 0.0013397 0.0147349 -0.00891746 -0.208606 0.00125 277
1 0.160291 0.105673 0.0013307 0.00401948 0.0105417 -0.235672 0.00125 278
1 0.184066 0.432235 0.0012285 0.00614782 0.00677795 0.0329087 0.00125 279
1 0.238257 0.493989 0.00129021 -0.0460994 -0.0048413 -0.233096 0.00125 280
1 0.254569 0.429619 0.00168218 -0.00751298 -0.00390475 -0.227502 0.00125 281
1 0.0835161 0.504152 0.00155331 0.00537823 0.0084276 -0.192666 0.00125 282
1 0.168752 0.435203 0.00243209 -0.00341673 0.00626848 -0.0382416 0.00125 283
1 0.189158 0.10146 0.00142015 -0.0106644 -0.0202751 0.214154 0.00125 284
1 0.44099 0.468647 0.00181968 0.00639045 0.00192438 -0.0593236 0.00125 285
1 0.178888 0.311811 0.00139556 -0.00909974 0.02387 0.244422 0.00125 286
1 0.37678 0.269732 0.00135593 0.0181593 0.00130039 -0.235565 0.00125 287
1 0.32864 0.162336 0.00129418 0.000369364 -0.0020271 -0.284358 0.00125 288
1 0.0873715 0.0949201 0.00130838 -0.00633618 0.00539683 0.267439 0.00125 289
1 0.37998 0.342441 0.00178013 0.0136272 -0.00277345 0.0916627 0.00125 290
1 0.266695 0.487769 0.00123253 0.000719419 0.0162915 -0.11712 0.00125 291
1 0.0270765 0.272349 0.00158288 -0.000868013 -0.00745772 -0.235202 0.00125 292
1 0.171748 0.307381 0.00244126 -0.0038365 0.00524179 -0.074031 0.00125 293
1 0.260775 0.268073 0.00124079 -0.00789867 0.0184187 -0.197191 0.00125 294
1 0.495778 0.0761862 0.00127812 0.0114734 -0.00410849 -0.231356 0.00125 295
1 0.350473 0.193173 0.00130192 0.00891397 0.00688432 0.254304 0.00125 296
1 0.200696 0.0589773 0.00157288 -0.0153371 0.00900583 0.0527112 0.00125 297
1 0.484559 0.143064 0.0013226 0.00892152 0.0120564 -0.253771 0.00125 298
1 0.0442735 0.243213 0.00158371 -0.00696302 -0.00206363 -0.252433 0.00125 299
1 0.104031 0.214468 0.00160198 0.00116584 0.0113399 0.219601 0.00125 300
1 0.212096 0.0886304 0.00135182 0.0212069 -0.0101607 0.193945 0.00125 301
1 0.0188992 0.474037 0.00130659 0.00260176 -0.011308 -0.190357 0.00125 302
1 0.435953 0.0478737 0.00123683 0.000666531 0.00449486 0.228065 0.00125 303
1 0.471343 0.0908262 0.00123009 -0.00263026 -0.0082253 0.0493768 0.00125 304
1 0.401275 0.374269 0.00144162 0.00911977 -0.00204049 0.217513 0.00125 305
1 0.179417 0.391641 0.00167013 -0.0118458 -0.00284736 -0.229164 0.00125 306
1 0.491068 0.128601 0.00158823 -0.00940876 -0.00787325 0.142541 0.00125 307
1 0.00200823 0.277078 0.00224612 0.000709572 -0.0206105 -0.0539094 0.00125 308
1 0.0725229 0.484383 0.0014525 -0.015402 0.00287839 0.13579 0.00125 309
1 0.189077 0.0530661 0.00143027 0.00242175 0.00220788 -0.237933 0.00125 310
1 0.0397446 0.444203 0.00157517 0.0114706 -0.00808564 -0.236529 0.00125 311
1 0.351194 0.151332 0.00198812 0.0147539 0.00156608 -0.0664308 0.00125 312
1 0.474483 0.276311 0.00129205 -0.000699444 0.0129469 -0.230077 0.00125 313
1 0.201268 0.237402 0.00129656 0.0072894 0.0110351 -0.233195 0.00125 314
1 0.0958267 0.280999 0.00156418 0.00721669 -0.00747982 -0.0414006 0.00125 315
1 0.323095 0.0929839 0.00171769 -0.00987161 -0.0122061 -0.090392 0.00125 316
1 0.484473 0.285139 0.00165986 -0.00300833 0.0171933 0.122714 0.00125 317
1 0.0162852 0.481267 0.00159631 -0.016619 0.00395884 0.106373 0.00125 318
1 0.0800487 0.0794744 0.00186613 -0.00189032 0.00483687 -0.25159 0.00125 319
1 0.0214075 0.16328 0.00162403 -0.00486688 0.0190477 -0.082456 0.00125 320
1 0.0132044 0.27043 0.00152882 -0.00579409 0.00237976 0.059583 0.00125 321
1 0.322975 0.410478 0.00222325 0.00686974 0.00809184 -0.0513767 0.00125 322
1 0.45975 0.166787 0.00149482 -0.0088504 -0.00587626 -0.238783 0.00125 323
1 0.149725 0.194933 0.0022548 0.0193807 -0.00216157 -0.0132572 0.00125 324
1 0.283744 0.140942 0.00144641 -0.0115708 -0.0277363 0.230479 0.00125 325
1 0.127658 0.0245887 0.00127261 -0.00463217 0.00728871 0.162284 0.00125 326
1 0.341406 0.225349 0.00178437 0.00417492 -0.0027219 -0.151453 0.00125 327
1 0.209085 0.0114997 0.00143191 -0.0760954 -0.0146162 -0.076254 0.00125 328
1 0.313572 0.427019 0.00186486 0.00533423 0.0102782 -0.209139 0.00125 329
1 0.439229 0.25313 0.00149065 0.0031933 -0.0121146 0.208674 0.00125 330
1 0.478226 0.33435 0.00145264 0.000970896 0.00758773 0.167669 0.00125 331
1 0.285956 0.224239 0.00230132 0.00482123 -0.0132112 -0.129028 0.00125 332
1 0.400884 0.318846 0.00154788 0.0169457 -0.00173858 0.101704 0.00125 333
1 0.379807 0.288464 0.00130601 0.000702384 0.0117324 0.180087 0.00125 334
1 0.0123697 0.406425 0.00134467 -0.000304262 -0.0152702 -0.273869 0.00125 335
1 0.175579 0.341503 0.00170222 -0.0162759 -0.00289364 -0.222255 0.00125 336
1 0.273709 0.0695646 0.0015486 0.0035003 -0.0337447 0.0995178 0.00125 337
1 0.0211697 0.189558 0.00134869 -0.0174476 0.00541805 -0.237294 0.00125 338
1 0.424892 0.448811 0.00136571 0.0160326 -0.03251 0.17043 0.00125 339
1 0.30789 0.0989856 0.00143376 0.00751058 0.00450053 -0.238356 0.00125 340
1 0.0463798 0.375747 0.0012538 -0.00660865 0.014428 0.196738 0.00125 341
1 0.356545 0.381 0.00217011 0.0201289 -0.0116334 -0.157432 0.00125 342
1 0.0373194 0.373418 0.00200471 -0.00282136 -0.0053656 -0.180423 0.00125 343
1 0.445097 0.215323 0.00141373 -0.0026142 -0.0068718 0.14707 0.00125 344
1 0.105335 0.146553 0.00225862 0.022056 -0.0220124 -0.0502392 0.00125 345
1 0.427287 0.493186 0.00143537 0.000387033 0.00336423 0.218637 0.00125 346
1 0.41614 0.227734 0.0013942 -0.00679115 -0.0111429 -0.269899 0.00125 347
1 0.44737 0.171009 0.00241141 0.00422229 -0.0106382 -0.0389572 0.00125 348
1 0.000683626 0.221055 0.00241359 0.000690933 0.00606845 -0.0472957 0.00125 349
1 0.428261 0.203233 0.00176625 0.000291807 0.0116395 0.0799677 0.00125 350
1 0.491968 0.354608 0.00169059 -0.00490145 -0.00840191 -0.0937311 0.00125 351
1 0.391707 0.12446 0.00141271 0.0278051 -0.0232647 -0.202578 0.00125 352
1 0.237913 0.16307 0.0014539 0.0171525 0.0128294 -0.239094 0.00125 353
1 0.372485 0.196086 0.00171792 -0.00763365 -0.0077832 -0.0835004 0.00125 354
1 0.0560892 0.0295663 0.00158348 -0.00417379 -0.0229328 -0.191963 0.00125 355
1 0.0163863 0.2705 0.00136686 -0.00446636 -0.00392199 -0.10393 0.00125 356
1 0.42507 0.194628 0.00141123 0.0174188 -0.00461234 -0.24162 0.00125 357
1 0.146158 0.414561 0.00171228 -0.00793307 0.0123443 0.107138 0.00125 358
1 0.417883 0.250031 0.00138963 0.000486349 0.00549118 -0.238939 0.00125 359
1 0.452532 0.26685 0.00123008 -0.00956241 -0.00357084 -0.00154001 0.00125 360
1 0.484533 0.429075 0.00183789 0.0270243 0.0110894 -0.0754164 0.00125 361
1 0.153797 0.413123 0.00193656 -0.000657334 0.00652112 -0.200092 0.00125 362
1 0.100628 0.452458 0.00162517 -0.0110665 -0.00670052 -0.0937982 0.00125 363
1 0.0315977 0.0644802 0.00125685 -0.00200415 -0.00271921 -0.23227 0.00125 364
1 0.482722 0.343105 0.00131645 0.00540307 1.3878e-05 0.181799 0.00125 365
1 0.341606 0.457291 0.00159962 -0.0143267 -0.0147633 -0.233971 0.00125 366
1 0.388704 0.0712525 0.00143559 -0.00427581 -0.00964254 -0.231763 0.00125 367
1 0.36298 0.468734 0.00185389 0.0112388 0.0134015 -0.0858317 0.00125 368
1 0.504568 0.350483 0.00169861 -0.0133925 -0.00840203 0.0859409 0.00125 369
1 0.255203 0.498597 0.00141669 0.0154379 0.0123684 0.130588 0.00125 370
1 0.180868 0.42148 0.00158171 -0.00770509 -0.00898711 -0.226502 0.00125 371
1 0.00634125 0.289686 0.00150414 0.0263692 0.00527434 -0.231937 0.00125 372
1 0.199358 0.317304 0.00152254 -0.00701196 -0.010969 0.108041 0.00125 373
1 0.366452 0.187187 0.00165572 0.017526 0.00187696 0.0894001 0.00125 374
1 0.409547 0.120887 0.00132974 -0.0133745 0.00388526 0.0825331 0.00125 375
1 0.388556 0.478514 0.00169379 -0.00677535 -0.0182591 -0.0867973 0.00125 376
1 0.31444 0.170462 0.00180795 0.00209882 0.00650881 -0.0784057 0.00125 377
1 0.149261 0.33309 0.00159765 0.00605144 0.0101561 -0.23403 0.00125 378
1 0.107472 0.0471539 0.0012983 -0.00150169 -0.000194315 -0.229975 0.00125 379
1 0.157003 0.229574 0.00124971 0.00246339 0.0905786 -0.294697 0.00125 380
1 0.356033 0.206289 0.0015263 -0.00490716 0.00868846 -0.231728 0.00125 381
1 0.0832338 0.0509092 0.00228243 -0.00797287 -0.0182455 -0.0477438 0.00125 382
1 0.0417455 0.0471981 0.00183865 0.00367849 -0.00533707 -0.212234 0.00125 383
1 0.111794 0.303526 0.00135265 -0.0196989 0.00518478 -0.234198 0.00125 384
1 0.114962 0.100082 0.00206244 -0.00228059 -0.00487236 -0.0301846 0.00125 385
1 0.298278 0.483832 0.00195118 0.00544394 0.00359086 -0.0805021 0.00125 386
1 0.267615 0.308508 0.0014674 0.031717 0.000107552 -0.232604 0.00125 387
1 0.489092 0.308018 0.00147688 0.0179303 -0.00818471 -0.294783 0.00125 388
1 0.0114856 0.166735 0.00135682 -0.00781534 0.0201018 -0.238504 0.00125 389
1 0.126431 0.468662 0.00157618 0.021843 0.0216185 -0.0944488 0.00125 390
1 0.406125 0.309872 0.00145027 -0.00220138 0.00611448 0.132515 0.00125 391
1 0.263052 0.271325 0.00137911 -0.0118032 -0.0177453 -0.238099 0.00125 392
1 0.454368 0.442594 0.0014286 0.000244705 0.0100782 -0.183241 0.00125 393
1 0.108695 0.387117 0.00184961 0.00228716 -0.00110776 -0.223139 0.00125 394
1 0.36261 0.0986342 0.00147458 0.00179817 -0.00171365 -0.239997 0.00125 395
1 0.351932 0.403919 0.001294 0.00872213 0.00481137 0.16141 0.00125 396
1 0.00220998 0.404711 0.00126589 -0.023917 -0.0141833 -0.228945 0.00125 397