ITEM: TIMESTEP
1000000
ITEM: NUMBER OF ATOMS
10000
ITEM: BOX BOUNDS pp pp ff
0.0000000000000000e+00 3.8895207625000000e-01
0.0000000000000000e+00 3.8895207625000000e-01
-1.2500000000000001e-02 1.2500000000000001e-02
ITEM: ATOMS type x y z vx vy vz radius id
1 0.18998 0.383565 0.00168025 0.0204191 -0.00386956 -0.0854766 0.00125 1
1 0.318158 0.0593179 0.00123826 -0.0235447 -0.062127 0.166451 0.00125 2
1 0.277519 0.181811 0.00135187 -0.00588764 -6.34409e-05 0.214232 0.00125 3
1 0.229425 0.238768 0.00141041 0.000773537 0.0174709 0.222641 0.00125 4
1 0.313575 0.190459 0.00129017 -0.00620725 -0.0135886 0.23646 0.00125 5
1 0.231717 0.29252 0.00135186 0.00261693 0.0194165 0.161549 0.00125 6
1 0.133106 0.00771734 0.00157233 -0.0147627 -0.0273401 -0.089701 0.00125 7
1 0.311447 0.0604071 0.00223396 -0.00190024 -0.0413066 0.00824473 0.00125 8
1 0.17254 0.0633906 0.00161297 0.0173452 0.0635665 -0.234699 0.00125 9
1 0.00669709 0.370963 0.00161762 0.0105636 0.00171812 -0.0918515 0.00125 10
1 0.0925363 0.128454 0.00177411 -0.00173179 -0.0092446 -0.0812519 0.00125 11
1 0.217017 0.132342 0.00131033 -0.00133214 0.00862278 0.0369428 0.00125 12
1 0.143205 0.0302554 0.00126018 -0.00321747 -0.0204757 0.190353 0.00125 13
1 0.141968 0.360568 0.00154866 0.00179955 0.0108971 -0.188687 0.00125 14
1 0.204761 0.0732476 0.00177092 -0.0109591 0.0183218 0.115644 0.00125 15
1 0.064767 0.387253 0.00129476 -0.0340829 -0.0125176 -0.256881 0.00125 16
1 0.0678167 0.203328 0.00159116 0.0177831 -0.0169663 0.143737 0.00125 17
1 0.0640597 0.0374343 0.00235554 -0.0128163 0.000561713 -0.0454503 0.00125 18
1 0.288839 0.232489 0.00123539 0.00667166 -0.00903005 -0.169728 0.00125 19
1 0.214099 0.00960022 0.00127187 -0.0401372 0.0442556 0.160194 0.00125 20
1 0.0156003 0.214761 0.0014784 -0.00357136 0.0138039 -0.259389 0.00125 21
1 0.141856 0.15283 0.00156058 -0.0286719 -0.00233135 0.119051 0.00125 22
1 0.133209 0.131149 0.00157826 -0.00439849 -0.00280865 0.057572 0.00125 23
1 0.0723796 0.141966 0.00179856 -0.0459686 0.0295601 -0.0513587 0.00125 24
1 0.169243 0.132254 0.00168292 0.0299808 -0.0474108 -0.112557 0.00125 25
1 0.352459 0.247369 0.00142947 -0.0209242 0.00163666 -0.294157 0.00125 26
1 0.199103 0.0444149 0.00180638 -0.01886 -0.0730098 -0.180154 0.00125 27
1 0.107714 0.279605 0.00152959 -0.046224 -0.0161343 -0.23382 0.00125 28
1 0.0455994 0.146085 0.00124256 0.0384101 0.035124 0.271291 0.00125 29
1 0.21123 0.332051 0.0014685 -0.0312022 0.0150158 -0.200156 0.00125 30
1 0.308194 0.164114 0.00184223 0.0122862 0.0244485 -0.249563 0.00125 31
1 0.104998 0.0838902 0.00140394 -0.0114941 0.0140157 -0.187266 0.00125 32
1 0.280513 0.344506 0.00156271 0.0210118 -0.0194382 -0.188433 0.00125 33
1 0.251403 0.177774 0.00137177 -0.00858285 -0.01017 -0.200396 0.00125 34
1 0.309196 0.0088783 0.00129658 -0.00571084 -0.0184524 -0.20715 0.00125 35
1 0.0245201 0.171932 0.00155309 0.00267942 0.0313643 0.0594867 0.00125 36
1 0.167448 0.213125 0.00188878 0.0432266 -0.0290284 -0.0822196 0.00125 37
1 0.0407403 0.0674571 0.00163989 -0.00656948 0.000712265 -0.221418 0.00125 38
1 0.35349 0.175213 0.00141487 0.01473 -0.00462913 0.146584 0.00125 39
1 0.126955 0.211805 0.00139782 0.0113803 0.0116811 0.15002 0.00125 40
1 0.200574 0.322759 0.00226612 -0.00560878 -0.0138054 -0.131358 0.00125 41
1 0.268138 0.0925732 0.00140466 0.0163089 -0.0101415 -0.239336 0.00125 42
1 0.196646 0.273539 0.00156065 0.0069859 0.00252914 0.114494 0.00125 43
1 0.00490173 0.213832 0.00139951 0.0221052 0.0284026 -0.240516 0.00125 44
1 0.288848 0.0704019 0.00128805 -0.0187264 -0.0210129 -0.291335 0.00125 45
1 0.0478236 0.0559764 0.00229331 0.0185365 -0.0107308 -0.0442512 0.00125 46
1 0.227596 0.140751 0.00136352 -0.0205579 -0.00861539 -0.22168 0.00125 47
1 0.0308659 0.0925098 0.00123921 0.0290461 -0.0409399 0.164373 0.00125 48
1 0.0118816 0.185724 0.00126768 0.0316495 0.0167443 0.259836 0.00125 49
1 0.165323 0.312584 0.00185671 -0.00568128 -0.0131449 -0.0735002 0.00125 50
1 0.0238252 0.276218 0.00149953 0.0149749 -0.0279131 0.209869 0.00125 51
1 0.0801964 0.0306239 0.00238191 -0.0153792 -0.0188946 -0.113502 0.00125 52
1 0.285229 0.387898 0.00142856 -0.00781239 -0.0099667 -0.239378 0.00125 53
1 0.0114171 0.15595 0.00135191 0.0276304 0.0116094 -0.228539 0.00125 54
1 0.156996 0.36657 0.00184288 0.0307019 0.0307942 -0.207817 0.00125 55
1 0.0771748 0.0583646 0.00122872 -0.0393128 -0.0294189 0.136239 0.00125 56
1 0.120057 0.292996 0.00132976 -0.00814709 0.0107528 -0.310696 0.00125 57
1 0.3403 0.0580264 0.00149882 0.0172314 0.00127621 -0.230138 0.00125 58
1 0.303079 0.0449384 0.00175497 0.00111278 -0.00582219 0.122109 0.00125 59
1 0.279395 0.16843 0.00204541 -0.00850577 0.0126848 -0.18465 0.00125 60
1 0.366144 0.122944 0.00147581 0.00544944 0.0116252 0.121508 0.00125 61
1 0.101686 0.0433314 0.00158211 0.0120186 -0.0361514 -0.23531 0.00125 62
1 0.212499 0.271534 0.00131952 0.00385192 0.0397491 -0.219516 0.00125 63
1 0.0702375 0.0301852 0.00232017 -0.00921474 -0.0162388 -0.150459 0.00125 64
1 0.207032 0.323809 0.00208897 0.0104518 -0.0319299 -0.0711658 0.00125 65
1 0.134336 0.173616 0.00160545 -0.0150308 -0.00626291 -0.270416 0.00125 66
1 0.130442 0.268515 0.00159465 -0.00680227 -0.0319556 -0.238182 0.00125 67
1 0.25268 0.106168 0.00150166 -0.000893715 -0.0213976 -0.244387 0.00125 68
1 0.216498 0.0125015 0.00133808 -0.0167224 0.00419969 0.177079 0.00125 69
1 0.273539 0.0538701 0.00179786 0.00723194 -0.0544447 -0.146352 0.00125 70
1 0.385162 0.293057 0.00123036 0.0126589 -0.010916 0.0465412 0.00125 71
1 0.176539 0.178887 0.00145501 0.00243322 0.00877635 -0.0675758 0.00125 72
1 0.158633 0.370452 0.00157878 0.0207374 0.0279278 0.0983554 0.00125 73
1 0.0751381 0.25037 0.00132173 -0.00666728 0.0166396 0.180114 0.00125 74
1 0.345757 0.279109 0.00129348 0.0106923 -0.0168735 -0.191054 0.00125 75
1 0.244637 0.0193449 0.00152379 0.0215072 0.010479 0.0949398 0.00125 76
1 0.0629417 0.159297 0.00205789 -0.00199038 0.00338617 -0.0791098 0.00125 77
1 0.157319 0.0332466 0.00174281 0.0136127 -0.0127598 -0.236137 0.00125 78
1 0.380009 0.116918 0.00149603 0.0125695 -0.01903 0.0652044 0.00125 79
1 0.138061 0.158222 0.00170068 -0.000945585 -0.0228056 0.0998036 0.00125 80
1 0.386783 0.110911 0.00178825 -0.013493 -0.00755062 0.0925395 0.00125 81
1 0.0637012 0.131383 0.00148285 0.0245141 0.00607471 0.151738 0.00125 82
1 0.136878 0.227083 0.0014564 0.00255781 0.0219961 0.163735 0.00125 83
1 0.172999 0.187584 0.00206505 -0.0227039 -0.00909818 -0.126906 0.00125 84
1 0.169558 0.137604 0.00132048 0.0184067 0.00436474 -0.222717 0.00125 85
1 0.144477 0.263704 0.00129444 -0.0016033 0.0399573 0.249437 0.00125 86
1 0.164866 0.0176768 0.00134949 -0.0172207 -7.07031e-05 -0.225617 0.00125 87
1 0.0388683 0.326171 0.00123897 0.00549542 -0.000762416 0.235631 0.00125 88
1 0.109512 0.238796 0.00153777 -0.015531 -0.0386749 -0.263779 0.00125 89
1 0.214025 0.183769 0.00234455 -0.00911009 -0.0281074 -0.0262621 0.00125 90
1 0.180083 0.154103 0.00152268 0.0131347 0.0348597 0.206715 0.00125 91
1 0.242274 0.0539841 0.00137805 0.0046593 -0.051747 0.163287 0.00125 92
1 0.172401 0.175591 0.00146075 -0.0162932 -0.00505574 0.132305 0.00125 93
1 0.230431 0.131199 0.00144613 -0.00434601 -0.00677333 0.134588 0.00125 94
1 0.319669 0.322271 0.00151957 0.00280169 0.00570198 -0.231855 0.00125 95
1 0.0352383 0.284699 0.00207369 -0.0088375 -0.0147827 -0.0729971 0.00125 96
1 0.143561 0.115186 0.00181009 -0.00236673 -0.0170864 0.139128 0.00125 97
1 0.116883 0.177259 0.00156914 -0.0233288 -0.0184769 0.0940849 0.00125 98
1 0.295841 0.290639 0.0022644 -0.0053211 0.0237824 -0.0455206 0.00125 99
1 0.314433 0.32179 0.00129738 0.0115774 -0.00210315 0.208714 0.00125 100
1 0.16798 0.0808631 0.00184857 -0.022344 -0.0128751 -0.251535 0.00125 101
1 0.0428986 0.0980203 0.00153724 0.0239979 0.0206155 -0.231456 0.00125 102
1 0.387238 0.33052 0.00154795 0.0454961 -0.0170842 0.137781 0.00125 103
1 0.0435764 0.274791 0.00131769 -0.00672834 0.0147476 -0.188923 0.00125 104
1 0.250167 0.33035 0.00132343 -0.0122142 0.000925785 0.161705 0.00125 105
1 0.369616 0.383528 0.00126351 0.0105552 -0.0199803 0.175509 0.00125 106
1 0.314964 0.387625 0.00237824 -0.010196 -0.0045985 -0.102662 0.00125 107
1 0.251897 0.0133306 0.00133204 -0.019006 0.0169905 0.230035 0.00125 108
1 0.252886 0.378457 0.00163308 0.00190456 -0.00598477 0.0994216 0.00125 109
1 0.193471 0.153334 0.00152472 -0.0061793 -0.00743762 -0.241798 0.00125 110
1 0.306211 0.38377 0.00184361 0.0106131 0.010064 -0.0617804 0.00125 111
1 0.102193 0.168682 0.00177908 0.0135187 0.00887789 -0.0381008 0.00125 112
1 0.187556 0.152085 0.00128639 0.0243008 0.00440351 0.189314 0.00125 113
1 0.220883 0.0862848 0.0025242 -0.00782618 -0.0160838 0.0131065 0.00125 114
1 0.0896777 0.0682723 0.00123567 -0.00676223 0.0143453 0.189102 0.00125 115
1 0.188894 0.133743 0.001558 0.0187855 0.0218395 -0.190498 0.00125 116
1 0.157968 0.00332814 0.00229079 -0.00391002 -0.0329617 -0.05267 0.00125 117
1 0.256742 0.305099 0.00227038 0.0301789 0.033849 0.00710009 0.00125 118
1 0.252606 0.112984 0.00141676 0.00969054 -0.0268454 -0.247997 0.00125 119
1 0.144831 0.210871 0.0016404 0.025754 -0.00859011 -0.231357 0.00125 120
1 0.250519 0.355031 0.00213449 0.0153016 0.0202363 -0.0576379 0.00125 121
1 0.272191 0.105577 0.00134293 0.00584463 0.0222877 0.181122 0.00125 122
1 0.336465 0.233629 0.00168886 0.0366344 -0.0124882 -0.0634994 0.00125 123
1 0.136352 0.0498577 0.00132023 -0.0289724 -0.0181185 -0.232841 0.00125 124
1 0.0782303 0.350607 0.00175419 0.0141764 0.0264507 0.1432 0.00125 125
1 0.371331 0.0416012 0.00203752 -0.0144917 0.012778 -0.0760681 0.00125 126
1 0.34529 0.360583 0.00130631 -0.00254115 0.00166832 0.199632 0.00125 127
1 0.331467 0.0789281 0.00202447 0.0211572 -0.00796208 -0.201714 0.00125 128
1 0.213867 0.210655 0.00156428 0.0060706 -0.00291635 -0.240331 0.00125 129
1 0.24002 0.363314 0.00122696 0.00572951 0.000477277 -0.0501119 0.00125 130
1 0.0846959 0.368201 0.00207396 -0.00426181 0.0206535 -0.0607573 0.00125 131
1 0.312882 0.265593 0.00135623 -0.00578522 0.0036821 0.187145 0.00125 132
1 0.317571 0.273748 0.00142903 -0.0050999 -0.0022258 -0.246842 0.00125 133
1 0.166579 0.0391612 0.00140741 -0.0183077 0.00452011 -0.199919 0.00125 134
1 0.15586 0.184883 0.00226035 -0.00395572 -0.00344702 -0.0484564 0.00125 135
1 0.15637 0.0494591 0.00203878 0.0368744 0.0166433 -0.00360116 0.00125 136
1 0.0657381 0.288195 0.0014843 0.0387071 0.020888 -0.182506 0.00125 137
1 0.252268 0.0519134 0.00160325 0.0163788 -0.0186729 -0.236774 0.00125 138
1 0.267881 0.0780606 0.0012966 0.00569139 -0.0142649 0.207556 0.00125 139
1 0.0562341 0.197039 0.00129234 0.0112325 0.00583115 -0.0019479 0.00125 140
1 0.0691117 0.0401062 0.00144305 -0.00751494 -0.0105207 0.166763 0.00125 141
1 0.144968 0.356363 0.00164605 -0.019676 0.0035777 -0.0901912 0.00125 142
1 0.151395 0.199375 0.00134593 -0.0300074 0.0280977 0.25055 0.00125 143
1 0.0504188 0.0740812 0.00153801 0.0137029 -0.00207732 -0.064393 0.00125 144
1 0.353878 0.050128 0.00148377 -0.0151786 0.0100936 -0.23487 0.00125 145
1 0.163952 0.299432 0.00143205 0.0174075 0.00301355 0.139096 0.00125 146
1 0.371213 0.0836926 0.0017782 -0.0337468 -0.0222741 -0.231462 0.00125 147
1 0.337494 0.0951745 0.00204711 0.000937142 0.00419256 -0.0267528 0.00125 148
1 0.313445 0.0479751 0.00156253 0.0137298 0.00138011 0.0988687 0.00125 149
1 0.239333 0.0756439 0.00242872 0.0161549 0.00782078 -0.0823526 0.00125 150
1 0.180851 0.0558425 0.00221844 -0.033587 0.0280543 -0.170621 0.00125 151
1 0.204954 0.0217846 0.00176142 -0.00441983 0.00762422 -0.154147 0.00125 152
1 0.213662 0.134285 0.00139255 -0.0179181 0.0102103 0.257816 0.00125 153
1 0.111954 0.0772559 0.00221255 0.00919209 -0.00413208 -0.149289 0.00125 154
1 0.353149 0.02254 0.00128694 0.0110194 0.018959 -0.237334 0.00125 155
1 0.0853244 0.0962718 0.00152578 -0.0344159 0.00365925 -0.191266 0.00125 156
1 0.0238554 0.345797 0.00164426 0.0194836 0.00560527 0.0726233 0.00125 157
1 0.357482 0.133382 0.00140236 -0.00351454 -0.00983999 -0.229528 0.00125 158
1 0.196126 0.352 0.00229264 0.00196553 -0.000731258 -0.13144 0.00125 159
1 0.222352 0.228349 0.00155322 -0.0259307 -0.0106749 0.0894109 0.00125 160
1 0.305568 0.113139 0.0016573 -0.0215865 -0.0143517 -0.187653 0.00125 161
1 0.300204 0.254242 0.00138116 -0.00525887 0.0648049 -0.0591361 0.00125 162
1 0.375603 0.021119 0.00152174 0.00134586 -0.00614652 -0.221067 0.00125 163
1 0.218213 0.233638 0.00152985 -0.0314089 0.0495505 0.0658535 0.00125 164
1 0.388906 0.210853 0.00138042 0.0343894 -0.0247566 0.18252 0.00125 165
1 0.0470088 0.381474 0.00193493 0.0129975 0.0222835 -0.200745 0.00125 166
1 0.101552 0.112896 0.00137991 0.0386246 -0.00356128 0.186675 0.00125 167
1 0.216172 0.190339 0.00170191 0.00719569 0.0357772 -0.0803612 0.00125 168
1 0.177582 0.299198 0.00230321 -0.00293514 -0.00805488 -0.0610072 0.00125 169
1 0.179903 0.113557 0.0012325 0.00759235 -0.000641957 -0.0167842 0.00125 170
1 0.373637 0.115462 0.00141662 -0.0290619 -0.00993357 -0.230307 0.00125 171
1 0.335267 0.00665115 0.00132134 -0.0149866 -0.0179907 -0.28859 0.00125 172
1 0.232917 0.243251 0.0015569 0.0243473 0.00681136 0.133503 0.00125 173
1 0.30728 0.324619 0.00153648 0.000914252 -0.0147719 -0.240062 0.00125 174
1 0.352091 0.0675502 0.00211582 0.0041165 0.00909153 -0.170933 0.00125 175
1 0.0107731 0.340711 0.00165383 0.0188747 -0.0227796 0.0939479 0.00125 176
1 0.281075 0.118898 0.00124919 -0.00772085 -0.0172782 -0.229047 0.00125 177
1 0.227175 0.23111 0.00163073 -3.33574e-05 -0.0147813 -0.231895 0.00125 178
1 0.16045 0.019627 0.00144825 0.00300194 -0.017255 0.10566 0.00125 179
1 0.381349 0.0621029 0.00172365 0.011522 -0.0036004 0.0979439 0.00125 180
1 0.203264 0.0181938 0.00167134 -0.0178219 -0.015345 -0.272708 0.00125 181
1 0.30632 0.0119478 0.0012362 0.00544818 -0.0110488 -0.162799 0.00125 182
1 0.340753 0.143426 0.00133884 -0.0123088 0.00688924 0.169701 0.00125 183
1 0.145057 0.31469 0.00139224 -0.0306451 -0.0359075 -0.205687 0.00125 184
1 0.248322 0.215897 0.00243192 -0.0342807 0.00910621 -0.105703 0.00125 185
1 0.166323 0.0202378 0.00138515 -0.0175084 -0.0143265 -0.228511 0.00125 186
1 0.0562672 0.232336 0.00150314 0.0325094 0.000594511 0.132298 0.00125 187
1 0.31307 0.306796 0.00133763 0.00930136 -0.00752301 0.18924 0.00125 188
1 0.0741038 0.339443 0.00155212 -0.00285303 0.00757773 -0.228837 0.00125 189
1 0.369972 0.0716696 0.00154345 0.0206089 0.0059911 0.0563347 0.00125 190
1 0.00614825 0.253021 0.00159786 -0.0278008 -0.0183447 0.104128 0.00125 191
1 0.247943 0.196153 0.00132658 0.0113075 -0.0107379 0.177038 0.00125 192
1 0.146377 0.29886 0.00144677 -0.0118841 0.0168437 -0.232468 0.00125 193
1 0.00538338 0.160574 0.00163753 0.000730365 -0.021217 -0.247545 0.00125 194
1 0.342278 0.00366916 0.00163804 -0.00446229 -0.00520223 0.0931938 0.00125 195
1 0.0930241 0.13108 0.00239986 -0.0179279 -0.00651367 -0.0230361 0.00125 196
1 0.0424644 0.314998 0.00158164 0.0350653 -0.011254 0.225141 0.00125 197
1 0.301456 0.0963235 0.00131282 0.00183115 -0.00384478 -0.237842 0.00125 198
1 0.321696 0.109046 0.0013884 0.0101976 0.00373483 -0.233589 0.00125 199
1 0.367779 0.209282 0.00138936 0.00622214 0.0313251 -0.298837 0.00125 200
1 0.0226477 0.0110493 0.0016055 0.023424 -0.0022207 -0.227767 0.00125 201
1 0.281203 0.313405 0.00123894 0.00258456 0.00578361 0.203077 0.00125 202
1 0.240825 0.283512 0.0012656 -0.032611 0.0172672 0.262427 0.00125 203
1 0.061139 0.248454 0.0013448 0.0184637 0.00247152 -0.208727 0.00125 204
1 0.279805 0.202477 0.00180655 0.020018 0.0135004 -0.0750404 0.00125 205
1 0.335535 0.0529305 0.00128578 0.00562107 0.000840287 0.251016 0.00125 206
1 0.276411 0.207168 0.00145054 -0.019672 -0.00158199 0.154387 0.00125 207
1 0.158442 0.272396 0.00164432 0.0424593 -0.0283105 -0.101727 0.00125 208
1 0.158295 0.171409 0.00197537 0.0061954 -0.00463424 0.0017772 0.00125 209
1 0.140868 0.0923742 0.00138308 0.0138046 -0.0119029 -0.235856 0.00125 210
1 0.1906 0.129888 0.0017267 -0.00634679 0.0300606 -0.0641354 0.00125 211
1 0.32242 0.298952 0.00211775 0.014257 -0.0231573 -0.0667724 0.00125 212
1 0.359945 0.0454168 0.00171151 0.00468441 0.0156246 -0.264656 0.00125 213
1 0.330278 0.155731 0.00167674 0.0347929 -0.0205318 -0.0920232 0.00125 214
1 0.366897 0.185167 0.00134304 -0.0141445 -0.0104515 0.0327893 0.00125 215
1 0.248715 0.0268277 0.00135292 -0.0108985 -0.00885546 0.169835 0.00125 216
1 0.297892 0.155925 0.0024938 -0.0216611 -0.0217603 -0.0293266 0.00125 217
1 0.264469 0.0263086 0.00156078 0.0183255 -0.00466746 -0.289575 0.00125 218
1 0.321132 0.241567 0.00171679 0.00964893 0.00325576 -0.225311 0.00125 219
1 0.190133 0.00286576 0.00133362 -0.000768738 0.023483 0.171171 0.00125 220
1 0.371699 0.105082 0.00132373 -0.0008631 0.00589867 0.174706 0.00125 221
1 0.134288 0.193513 0.0017239 -0.0114679 -0.00467478 -0.273188 0.00125 222
1 0.290797 0.277733 0.00129256 0.0118691 0.00446923 -0.225793 0.00125 223
1 0.0976044 0.0943375 0.00249829 -0.0130994 0.00705042 -0.0338729 0.00125 224
1 0.202923 0.0395122 0.00123214 0.00700515 -0.00202002 0.109772 0.00125 225
1 0.229446 0.125285 0.0013065 0.0302901 -0.0110522 0.188135 0.00125 226
1 0.0479536 0.0105127 0.0013952 -0.00557299 -0.0310596 0.156326 0.00125 227
1 0.149005 0.329102 0.00123803 -0.0125607 0.0107917 -0.211158 0.00125 228
1 0.336651 0.363173 0.00169489 0.0133994 -0.00408577 -0.231713 0.00125 229
1 0.0482446 0.0430057 0.00130904 0.000834563 0.00885147 -0.23475 0.00125 230
1 0.310836 0.294136 0.00176414 0.0121621 -0.00431687 0.116162 0.00125 231
1 0.285845 0.0277803 0.00124284 0.0262844 -0.000347671 -0.211816 0.00125 232
1 0.176249 0.285862 0.00159916 -0.00378256 -0.00822275 -0.227319 0.00125 233
1 0.0704585 0.244447 0.00142638 -0.052357 0.00944087 0.21332 0.00125 234
1 0.0769696 0.285582 0.00128088 0.0315721 0.014726 -0.234522 0.00125 235
1 0.285848 0.13623 0.00211751 -0.0197387 -0.014734 -0.203187 0.00125 236
1 0.0917131 0.0558503 0.00240985 0.00354849 -0.0204084 -0.0304583 0.00125 237
1 0.142336 0.131578 0.00142784 -0.00813565 0.0222081 -0.240289 0.00125 238
1 0.314035 0.373048 0.00128905 -0.0139668 -0.00804684 -0.229439 0.00125 239
1 0.344621 0.183973 0.00166303 0.020577 -0.0130214 -0.211662 0.00125 240
1 0.00279743 0.232221 0.00127159 0.007094 -0.0138108 -0.229691 0.00125 241
1 0.289091 0.370342 0.00140324 0.0434507 0.0121359 0.152465 0.00125 242
1 0.313705 0.118695 0.00165278 0.00389642 0.0175625 -0.0845924 0.00125 243
1 0.267797 0.370315 0.00192786 -0.00717582 0.0203383 -0.0693192 0.00125 244
1 0.19799 0.19059 0.00145577 0.000297625 0.00319267 0.20911 0.00125 245
1 0.336609 0.223467 0.00126852 -0.0239319 0.00433281 -0.230393 0.00125 246
1 0.315547 0.214416 0.00133181 -0.00774974 -0.0242434 -0.230269 0.00125 247
1 0.0994457 0.344698 0.00127161 0.0178035 -0.0145099 -0.241623 0.00125 248
1 0.332886 0.180306 0.00150313 0.0670736 -0.00860386 -0.244939 0.00125 249
1 0.297018 0.310196 0.0013807 -0.0123407 0.00606661 0.175527 0.00125 250
1 0.287984 0.313686 0.00159057 -0.0288663 -0.00964593 -0.228526 0.00125 251
1 0.0788829 0.34404 0.00123378 0.00660288 -0.0224583 0.0720935 0.00125 252
1 0.323883 0.195017 0.00183754 0.00324095 0.00121271 -0.163295 0.00125 253
1 0.136317 0.33646 0.00243321 0.00485487 -0.00913368 -0.0799574 0.00125 254
1 0.329967 0.0708135 0.00123743 -0.0034572 -0.0103215 -0.136902 0.00125 255
1 0.120101 0.20715 0.00145146 -0.00710304 -0.0126362 0.228396 0.00125 256
1 0.140956 0.239894 0.00125527 0.00786233 -0.00785751 0.199215 0.00125 257
1 0.122489 0.32574 0.00128218 -0.000628947 -4.52752e-05 0.210082 0.00125 258
1 0.0376472 0.282542 0.0013062 -0.0164213 0.0101493 -0.0671146 0.00125 259
1 0.150592 0.354024 0.0019762 -0.00820963 0.00362568 -0.0715881 0.00125 260
1 0.0216849 0.269526 0.00143095 0.0153488 -0.0112639 -0.189997 0.00125 261
1 0.107212 0.113518 0.00145846 -0.00126062 -0.010923 -0.247334 0.00125 262
1 0.068064 0.333724 0.00128551 0.0126243 -0.0168786 0.196576 0.00125 263
1 0.00728494 0.351016 0.00163572 0.0124654 0.0720499 -0.157609 0.00125 264
1 0.132997 0.0755532 0.00247079 -0.0297516 8.08364e-05 -0.0362453 0.00125 265
1 0.1538 0.289131 0.0012981 0.0436343 0.0114228 -0.203062 0.00125 266
1 0.0318038 0.361766 0.00164189 0.0104884 0.0327831 -0.0894746 0.00125 267
1 0.0901036 0.080786 0.00123088 0.024288 0.0471531 -0.00776936 0.00125 268
1 0.044414 0.318779 0.00186872 0.0209908 0.0110106 -0.201639 0.00125 269
1 0.191279 0.0462584 0.00130185 0.0135888 0.0929206 0.0853586 0.00125 270
1 0.315071 0.0212617 0.00181094 0.0078381 0.0257078 -0.215956 0.00125 271
1 0.0697357 0.316172 0.00128982 0.0144189 0.0182911 -0.230403 0.00125 272
1 0.145062 0.32501 0.00148318 -0.00450945 -0.0144924 -0.228798 0.00125 273
1 0.352873 0.339563 0.00129251 0.00519687 -0.0282062 -0.233136 0.00125 274
1 0.257228 0.0218758 0.0019916 0.00267171 -0.00720235 -0.222311 0.00125 275
1 0.173191 0.245624 0.00140808 0.0128442 -0.00744611 0.134416 0.00125 276
1 0.323446 0.178687 0.00150737 -0.00687245 0.0107319 0.205126 0.00125 277
1 0.108027 0.0509719 0.00133993 -0.0193613 -0.010639 0.236734 0.00125 278
1 0.213372 0.0397463 0.00137167 0.0103417 0.00948762 -0.18553 0.00125 279
1 0.156596 0.252886 0.00185338 -0.0108126 0.0259036 -0.016346 0.00125 280
1 0.140255 0.00850748 0.00137211 -0.0625546 0.0852353 -0.184728 0.00125 281
1 0.371931 0.211597 0.00152075 -0.00272977 0.0101821 0.068767 0.00125 282
1 0.147113 0.386542 0.00162411 0.0829315 0.0201735 0.0843296 0.00125 283
1 0.00307425 0.241229 0.00227587 0.0853789 0.0128621 -0.000461473 0.00125 284
1 0.0259939 0.260382 0.00204368 -0.011843 0.00675159 -0.182817 0.00125 285
1 0.376737 0.220888 0.00147195 0.0131936 0.000793013 0.232319 0.00125 286
1 0.353614 0.379298 0.00220685 -0.0482052 0.00010361 -0.05781 0.00125 287
1 0.256311 0.223449 0.00138423 0.00969684 -0.0231611 0.15041 0.00125 288
1 0.289881 0.22963 0.00175265 0.00671007 0.00151891 -0.075676 0.00125 289
1 0.321161 0.121997 0.00128148 0.01682 0.00708294 0.186992 0.00125 290
1 0.0614467 0.21624 0.00168806 -0.0201366 0.0120806 0.0878534 0.00125 291
1 0.270395 0.197575 0.00132352 -0.0291701 -0.0241194 0.227604 0.00125 292
1 0.046261 0.371001 0.00141624 0.00242546 -0.0246561 -0.101405 0.00125 293
1 0.145902 0.370543 0.00154403 -0.00887872 -0.00744441 0.179972 0.00125 294
1 0.283481 0.237969 0.00223654 -0.0241364 0.0131135 -0.138322 0.00125 295
1 0.237459 0.0161104 0.00155879 0.00555956 -0.00381816 0.105949 0.00125 296
1 0.139817 0.328421 0.00170323 -0.0140996 -0.00530963 -0.045003 0.00125 297
1 0.184563 0.189152 0.00157321 0.00925958 -0.0110406 -0.0979572 0.00125 298
1 0.127068 0.200075 0.00172153 -0.0143192 0.015584 -0.171746 0.00125 299
1 0.200259 0.143439 0.00169233 -0.0584032 -0.00312972 -0.160063 0.00125 300
1 0.00524953 0.0831697 0.00143885 -0.0165969 0.035917 0.218531 0.00125 301
1 0.0928257 0.168733 0.00138177 0.00231525 0.0137511 0.18761 0.00125 302
1 0.243664 0.311039 0.00127051 -0.0272219 0.0288573 0.187957 0.00125 303
1 0.298771 0.0814149 0.00128084 0.0139104 -7.16385e-05 -0.225267 0.00125 304
1 0.168294 0.316613 0.00123356 0.00238723 -0.00547361 -0.153699 0.00125 305
1 0.327563 0.350905 0.00187729 0.00594784 0.00884859 -0.245859 0.00125 306
1 0.370041 0.246628 0.00138545 0.00979293 0.00332626 0.200397 0.00125 307
1 0.117591 0.232912 0.00142105 0.0661079 -0.0610514 -0.214202 0.00125 308
1 0.258717 0.386753 0.00185177 -0.00140711 0.00105482 -0.0365123 0.00125 309
1 0.19441 0.148968 0.00150073 -0.0101009 0.00173834 0.115707 0.00125 310
1 0.374114 0.252214 0.00157321 0.00432468 0.028557 -0.228432 0.00125 311
1 0.154013 0.158524 0.001375 0.0189037 0.0187663 -0.224959 0.00125 312
1 0.33216 0.33383 0.00130046 0.00190355 -0.0226759 0.182661 0.00125 313
1 0.0597443 0.087849 0.00128255 0.014331 -0.0144983 -0.259904 0.00125 314
1 0.0112009 0.140868 0.00132919 0.0065481 -7.28271e-05 0.191111 0.00125 315
1 0.337347 0.00847781 0.00127463 0.022821 -0.0148473 -0.242226 0.00125 316
1 0.204432 0.168255 0.0015533 0.00251555 0.0103728 0.0505722 0.00125 317
1 0.359741 0.247876 0.00150861 0.000988377 -0.0251837 -0.237152 0.00125 318
1 0.276823 0.232355 0.00215872 0.0229172 -0.0137761 -0.159905 0.00125 319
1 0.129801 0.363778 0.00164412 -0.00208673 0.000344885 -0.120157 0.00125 320
1 0.236415 0.254921 0.00129141 0.0213273 0.0227934 0.0449328 0.00125 321
1 0.335025 0.0435738 0.00212546 0.0348795 0.0131099 -0.0573042 0.00125 322
1 0.313983 0.35011 0.00212553 0.014463 0.0114476 -0.162137 0.00125 323
1 0.105629 0.24857 0.00124918 0.0013995 0.02716 -0.233151 0.00125 324
1 0.363462 0.125033 0.00152828 -0.0156564 -0.0152241 -0.190738 0.00125 325
1 0.136856 0.385736 0.00155819 0.0164228 -0.00548952 -0.100665 0.00125 326
1 0.225822 0.0820639 0.00146572 0.0151256 -0.0290356 -0.203978 0.00125 327
1 0.247423 0.332035 0.00139013 0.0215185 0.00216752 0.182523 0.00125 328
1 0.307662 0.196021 0.00151097 -0.0132453 0.0219739 -0.195659 0.00125 329
1 0.0830597 0.200006 0.00222379 0.000780788 0.0102105 -0.0511917 0.00125 330
1 0.197796 0.243202 0.00148053 -0.0148144 -0.00554286 0.121944 0.00125 331
1 0.170304 0.333214 0.00237525 0.0126857 -0.00543094 -0.0603938 0.00125 332
1 0.158542 0.305735 0.00123815 -0.00263932 -0.0231721 0.240849 0.00125 333
1 0.196395 0.340989 0.00123179 -0.00702254 -0.0154333 0.118364 0.00125 334
1 0.110388 0.327738 0.00141746 -0.013747 -0.0308185 0.146666 0.00125 335
1 0.118711 0.00142633 0.0019192 -0.00479206 -0.0041199 -0.19944 0.00125 336
1 0.0986773 0.299772 0.00128015 -0.00474238 0.00782516 0.187898 0.00125 337
1 0.258876 0.237049 0.00180445 -0.00891062 -0.00388392 -0.075637 0.00125 338
1 0.00970245 0.0179358 0.00143855 -0.0139877 -0.0181198 0.138779 0.00125 339
1 0.0154126 0.0291856 0.00141058 0.0187882 0.0124535 -0.255334 0.00125 340
1 0.134161 0.024861 0.00150535 0.0191996 0.0105544 0.218124 0.00125 341
1 0.180209 0.295791 0.00132433 -0.027568 -0.0145284 -0.0883996 0.00125 342
1 0.28437 0.335263 0.00123189 0.00804536 0.00240545 -0.0552346 0.00125 343
1 0.00950563 0.0494346 0.00141832 0.0109801 -0.0231292 0.142548 0.00125 344
1 0.207581 0.157159 0.00216742 0.0478685 0.0192754 -0.0271053 0.00125 345
1 0.308845 0.0210416 0.00174386 -0.0104229 0.0129285 -0.2255 0.00125 346
1 0.258655 0.0559604 0.00133831 0.0121465 0.00064215 0.216864 0.00125 347
1 0.317507 0.292773 0.00130605 -0.0167324 -0.00510604 0.234471 0.00125 348
1 0.241919 0.14997 0.00136958 0.0604058 0.0526316 -0.223424 0.00125 349
1 0.0343822 0.271326 0.00136458 -0.00885197 -0.00624212 -0.248337 0.00125 350
1 0.152035 0.2319 0.00158531 -0.020457 0.00159271 -0.283492 0.00125 351
1 0.380697 0.350929 0.00128322 -0.0139586 0.00997129 0.191458 0.00125 352
1 0.297558 0.0375912 0.00238906 -1.67053e-05 -0.00769966 -0.129437 0.00125 353
1 0.361705 0.117895 0.00143903 0.00153715 -0.00710921 0.136133 0.00125 354
1 0.37872 0.275529 0.00212121 0.0215011 0.00593967 0.00374325 0.00125 355
1 0.353957 0.205553 0.00124767 0.00329376 0.0114358 0.179754 0.00125 356
1 0.224293 0.175587 0.00176046 0.0104427 0.00470415 -0.0850053 0.00125 357
1 0.0421377 0.187626 0.00170705 0.0154265 0.002072 -0.0834568 0.00125 358
1 0.212238 0.242321 0.00126297 0.00682682 -0.0172741 0.193167 0.00125 359
1 0.0066292 0.123801 0.00128125 0.00861532 0.00913632 0.207795 0.00125 360
1 0.136903 0.0758488 0.00162079 0.00456316 -0.0119167 -0.0921899 0.00125 361
1 0.367004 0.375497 0.00123105 0.00756237 0.0204046 0.042359 0.00125 362
1 0.245798 0.242632 0.00174024 0.00817735 0.00609769 -0.218899 0.00125 363
1 0.387749 0.152181 0.00160272 0.040228 0.0260798 -0.194053 0.00125 364
1 0.311217 0.100809 0.00137539 0.00456164 -0.00435644 -0.183604 0.00125 365
1 0.369261 0.0889444 0.00126705 -0.000655602 0.00126198 0.259368 0.00125 366
1 0.0754208 0.316988 0.00234836 0.075327 -0.0525353 -0.062813 0.00125 367
1 0.206102 0.0130106 0.0023018 0.00693031 -0.00104237 -0.0448856 0.00125 368
1 0.326351 0.278123 0.00151444 -0.00587376 -0.0307897 0.0823484 0.00125 369
1 0.111607 0.0987228 0.001523 0.0301648 0.00294132 -0.237477 0.00125 370
1 0.0136699 0.00652959 0.00142217 0.00286438 -0.00236603 -0.0719583 0.00125 371
1 0.332414 0.214813 0.00148335 -0.0013026 0.00772369 0.0918012 0.00125 372
1 0.325466 0.183555 0.00149084 -0.00802004 -0.0446394 0.15216 0.00125 373
1 0.0315765 0.22355 0.00143508 -0.000514001 -0.000856278 0.216514 0.00125 374
1 0.355319 0.304725 0.00171289 -0.0124449 -0.0206094 -0.0881582 0.00125 375
1 0.316891 0.00946793 0.00182249 -0.0014141 -0.000605716 -0.162939 0.00125 376
1 0.196757 0.371619 0.00169896 0.0137123 0.00209219 -0.089892 0.00125 377
1 0.313865 0.377074 0.00205408 0.0176994 -0.011988 -0.0459414 0.00125 378
1 0.193333 0.387445 0.00153575 -0.0048996 0.0378735 -0.104144 0.00125 379
1 0.0450583 0.351469 0.00126325 0.000278335 -0.0128441 -0.123838 0.00125 380
1 0.163339 0.131226 0.0014765 -0.00724392 0.0299482 0.109507 0.00125 381
1 0.0319386 0.188211 0.00147522 0.0311989 -0.0315541 0.0640905 0.00125 382
1 0.354209 0.211955 0.00152365 -0.036872 0.00862059 0.153704 0.00125 383
1 0.370065 0.304119 0.00153986 -0.00879498 -0.00552194 -0.237261 0.00125 384
1 0.0937573 0.125008 0.00163937 0.0366428 0.00547894 -0.0922981 0.00125 385
1 0.339983 0.289521 0.00145245 -0.00249827 0.00281484 0.216577 0.00125 386
1 0.269931 0.282432 0.00149324 -0.0237558 0.00387439 0.0405038 0.00125 387
1 0.317345 0.146168 0.00139111 -0.00176507 -0.00446528 0.248691 0.00125 388
1 0.342281 0.0631776 0.00150712 0.00583539 -0.00787023 -0.196358 0.00125 389
1 0.00326168 0.109154 0.00186504 -0.0350837 0.00513697 -0.0663878 0.00125 390
1 0.354939 0.168894 0.00134507 0.000179117 0.0211999 0.188291 0.00125 391
1 0.345326 0.316382 0.00146979 0.0171797 0.0111792 0.212912 0.00125 392
1 0.34073 0.228513 0.00147593 0.0320689 0.0105468 0.107633 0.00125 393
1 0.279041 0.149866 0.00166962 0.015328 -0.0187402 -0.275887 0.00125 394
1 0.112399 0.0373756 0.00123717 -0.00516179 0.00175474 -0.197961 0.00125 395
1 0.102935 0.155594 0.00139392 -0.0141606 0.00383789 0.1518 0.00125 396
1 0.176107 0.244348 0.0023824 0.000677169 0.00303738 -0.108847 0.00125 397
1 0.223062 0.179829 0.00130847 0.0106745 0.00690493 -0.229473 0.00125 398
1 0.312666 0.296637 0.00175181 -0.0116902 -0.0184233 -0.221733 0.00125 399