ITEM: TIMESTEP
1000000
ITEM: NUMBER OF ATOMS
10000
ITEM: BOX BOUNDS pp pp ff
0.0000000000000000e+00 2.6022773250000003e-01
0.0000000000000000e+00 2.6022773250000003e-01
-1.2500000000000001e-02 1.2500000000000001e-02
ITEM: ATOMS type x y z vx vy vz radius id
1 0.234886 0.0770403 0.00133751 -0.0126892 0.00954104 0.196408 0.00125 1
1 0.0943354 0.24638 0.00157077 -0.00637174 0.015789 -0.195583 0.00125 2
1 0.206542 0.0808735 0.00144118 0.0204101 -0.0690456 -0.0685192 0.00125 3
1 0.209325 0.167538 0.00147986 0.0539002 0.0408618 -0.0823086 0.00125 4
1 0.181683 0.0946446 0.00228226 0.0192763 -0.0224686 -0.135762 0.00125 5
1 0.232071 0.100529 0.00193917 0.0560622 -0.0597557 -0.0506745 0.00125 6
1 0.243854 0.0279908 0.00130353 -0.0176964 0.0293244 0.242683 0.00125 7
1 0.197703 0.165943 0.00146051 0.0770003 -0.026688 -0.0824235 0.00125 8
1 0.00580918 0.00318757 0.00148767 -0.0508542 0.00788 0.147305 0.00125 9
1 0.24703 0.0392609 0.00135588 -0.088253 0.0363939 0.179385 0.00125 10
1 0.198352 0.137842 0.00229467 0.0112473 0.0852356 -0.0556525 0.00125 11
1 0.0331114 0.0393794 0.0013362 -0.0528763 0.000876693 -0.0274214 0.00125 12
1 0.230524 0.022302 0.00241517 -0.0120077 -0.0479183 -0.0422989 0.00125 13
1 0.0160581 0.0835702 0.00125813 0.0166464 0.0452225 0.0432446 0.00125 14
1 0.187623 0.0156917 0.00180617 -0.0671002 0.0206923 -0.214104 0.00125 15
1 0.143677 0.217892 0.00146101 0.0663427 -0.0532468 -0.140092 0.00125 16
1 0.24522 0.150521 0.00146138 -0.00749061 0.0171429 -0.0507228 0.00125 17
1 0.046223 0.0678167 0.00148921 0.0065505 -0.0003889 -0.217942 0.00125 18
1 0.0253581 0.252785 0.00143991 -0.0519872 0.0942017 0.0853185 0.00125 19
1 0.0643265 0.110803 0.00241057 -0.0344629 0.0180976 -0.0402583 0.00125 20
1 0.0629917 0.0368577 0.00229049 -0.0173694 -0.00353089 -0.134499 0.00125 21
1 0.0742108 0.235848 0.00233884 -0.0810962 -0.0231882 -0.0494609 0.00125 22
1 0.166147 0.00978574 0.00222483 0.0071996 -0.0317952 -0.070696 0.00125 23
1 0.102046 0.00564606 0.00131243 0.038721 -0.0202929 0.185509 0.00125 24
1 0.127678 0.230498 0.00183213 -0.0226701 0.0780121 -0.100789 0.00125 25
1 0.180189 0.0267055 0.0014173 0.0600877 0.00618818 -0.24289 0.00125 26
1 0.248036 0.00810351 0.00131037 -0.0168263 -0.0501537 0.0480038 0.00125 27
1 0.17209 0.257398 0.00155576 -0.00509437 -0.0422767 0.0584881 0.00125 28
1 0.123882 0.209393 0.00211708 -0.0140313 -0.0351567 -0.0412642 0.00125 29
1 0.0300677 0.224258 0.00129572 0.0193126 -0.0235813 0.231202 0.00125 30
1 0.242736 0.244794 0.00206157 -0.0372812 -0.0536361 -0.108105 0.00125 31
1 0.101491 0.215992 0.00154926 0.0177398 0.0690323 -0.250202 0.00125 32
1 0.0436494 0.0770778 0.00201821 0.00470475 -0.0702149 -0.188072 0.00125 33
1 0.152264 0.223912 0.00188014 0.0208925 -0.0252705 -0.163744 0.00125 34
1 0.0643612 0.214883 0.00200884 0.0731049 0.0048733 -0.0758419 0.00125 35
1 0.0896937 0.00685367 0.00125615 -0.0227946 -0.049301 -0.126874 0.00125 36
1 0.134656 0.0516505 0.0015223 0.0331623 -0.0224593 -0.245991 0.00125 37
1 0.246755 0.0160368 0.00194583 -0.0303023 -0.0107536 -0.172188 0.00125 38
1 0.0590131 0.0232463 0.00144693 -0.0184341 0.0251774 -0.260419 0.00125 39
1 0.183289 0.0513983 0.00189606 0.023228 -0.0677121 -0.174329 0.00125 40
1 0.102598 0.200914 0.00138478 0.019856 0.00580246 -0.00179109 0.00125 41
1 0.0394335 0.0679139 0.00147196 -0.044328 0.0391111 -0.129402 0.00125 42
1 0.0105089 0.131655 0.00147587 0.0274115 -0.0505433 0.185118 0.00125 43
1 0.144948 0.09467 0.00138017 0.0397025 0.0231104 -0.23729 0.00125 44
1 0.199585 0.152272 0.00142764 0.0159088 -0.0151149 0.188477 0.00125 45
1 0.148837 0.196773 0.00208639 0.0101731 0.0137074 -0.0548811 0.00125 46
1 0.151623 0.155244 0.00152176 0.000433628 0.0407971 -0.231168 0.00125 47
1 0.0036876 0.125091 0.00204673 0.0659906 -0.0140011 -0.0711217 0.00125 48
1 0.16919 0.253992 0.0017634 -0.0260543 -0.128117 -0.222053 0.00125 49
1 0.154193 0.185517 0.00202913 -0.0188405 -0.0275615 -0.149765 0.00125 50
1 0.0841849 0.0943006 0.00182154 0.0170073 0.0119992 -0.176991 0.00125 51
1 0.162663 0.00921357 0.00233124 0.0384901 -0.0226214 -0.0716253 0.00125 52
1 0.032613 0.143936 0.00235376 -0.00145808 -0.00141563 -0.0112102 0.00125 53
1 0.0170332 0.0419315 0.00150143 -0.0150912 -0.0063008 -0.225726 0.00125 54
1 0.21812 0.0339659 0.00169831 -0.0514406 0.0306699 -0.0922939 0.00125 55
1 0.0340452 0.0205433 0.00147406 -0.0138248 -0.0167476 -0.0980297 0.00125 56
1 0.0113878 0.090588 0.00162729 -0.0519963 0.0516368 -0.153559 0.00125 57
1 0.0921025 0.228518 0.0024021 0.00170988 -0.00491633 -0.100267 0.00125 58
1 0.157032 0.146265 0.0014753 -0.000316637 0.0618447 -0.113759 0.00125 59
1 0.108843 0.047262 0.00140662 -0.0485971 -0.0947156 -0.236339 0.00125 60
1 0.151524 0.0212142 0.00134098 0.0360669 -0.0210652 -0.25545 0.00125 61
1 0.165969 0.0648067 0.00164185 0.0434235 -0.0558209 -0.11526 0.00125 62
1 0.0755968 0.113895 0.00146204 0.0278916 0.0452949 -0.119399 0.00125 63
1 0.0434545 0.00126999 0.00129587 0.00897886 -0.00957258 5.70592e-05 0.00125 64
1 0.0716348 0.0830143 0.00178778 -0.0286796 -0.0127253 -0.173985 0.00125 65
1 0.0736496 0.201611 0.00158268 -0.00927619 -0.0191274 0.202326 0.00125 66
1 0.17379 0.197967 0.00125087 -0.0314194 -0.0166018 -0.244381 0.00125 67
1 0.139989 0.115956 0.00244264 0.0377259 -0.00153413 -0.0352758 0.00125 68
1 0.210895 0.133148 0.00244237 -0.0570774 0.0492478 -0.0282551 0.00125 69
1 0.146119 0.170728 0.00192658 -0.0293308 -0.0427818 -0.224597 0.00125 70
1 0.1327 0.0740708 0.00208364 0.0369761 0.0186783 -0.0685988 0.00125 71
1 0.0860506 0.204188 0.0014964 -0.0283259 0.0207183 -0.218913 0.00125 72
1 0.218841 0.107581 0.00146959 -0.0217596 -0.0357154 0.161359 0.00125 73
1 0.196135 0.0945689 0.00215358 0.0075088 0.0852733 0.00337863 0.00125 74
1 0.0910693 0.191964 0.00134625 0.0193779 0.0354785 -0.022901 0.00125 75
1 0.0347701 0.0971333 0.00133121 -0.00641644 0.0112573 -0.109171 0.00125 76
1 0.161105 0.109329 0.00168297 0.0118767 0.0528454 -0.216867 0.00125 77
1 0.0623998 0.18641 0.00146712 0.021297 0.0509518 -0.0860269 0.00125 78
1 0.20569 0.124961 0.00191792 -0.0078998 0.021657 -0.200313 0.00125 79
1 0.057285 0.154161 0.00223935 0.00964421 0.05175 -0.0724053 0.00125 80
1 0.231323 0.131648 0.00132947 -0.00678321 0.0317229 -0.092159 0.00125 81
1 0.172708 0.136151 0.00213037 -0.0266659 -0.000384869 -0.179474 0.00125 82
1 0.200007 0.17576 0.00125745 -0.00410975 -0.0684897 0.244738 0.00125 83
1 0.203579 0.220046 0.00136461 -0.00319186 0.0434009 0.189518 0.00125 84
1 0.166158 0.220675 0.00170101 0.0117033 0.0532175 -0.158383 0.00125 85
1 0.091795 0.226046 0.0021537 0.0222555 -0.0333291 -0.0558629 0.00125 86
1 0.237617 0.06089 0.00153639 0.0185082 0.0829935 -0.188184 0.00125 87
1 0.213322 0.168185 0.00235232 0.0318001 -0.00840165 -0.113714 0.00125 88
1 0.0614906 0.230764 0.00125448 -0.0515939 -0.0412667 0.0152593 0.00125 89
1 0.139561 0.163787 0.00179728 0.0426624 0.0183102 -0.0768203 0.00125 90
1 0.0135654 0.101713 0.00180092 -0.0441828 0.00316924 -0.0909328 0.00125 91
1 0.0501554 0.154355 0.00200404 -0.0245182 0.0380671 -0.0621877 0.00125 92
1 0.22118 0.068779 0.00240534 -0.0012118 -0.03121 -0.0966237 0.00125 93
1 0.258137 0.229502 0.00226216 -0.184197 -0.00106353 -0.0558871 0.00125 94
1 0.152437 0.0866463 0.00126508 0.0388825 0.0337821 -0.27379 0.00125 95
1 0.0348187 0.215992 0.00125303 0.00767624 -0.0110397 0.214952 0.00125 96
1 0.208702 0.157665 0.00190849 -0.0714901 -0.0148616 -0.122414 0.00125 97
1 0.0645342 0.0868169 0.00157737 -0.0146644 0.00580811 -0.184347 0.00125 98
1 0.15187 0.0840917 0.00208415 0.00902397 0.0350492 -0.118739 0.00125 99
1 0.0100957 0.096466 0.00127357 -0.0866565 -0.0753591 0.106843 0.00125 100
1 0.00344682 0.0415686 0.00168596 0.00139742 -0.00531341 -0.2367 0.00125 101
1 0.20262 0.0260316 0.00136931 0.0477647 0.080964 -0.0503893 0.00125 102
1 0.121495 0.160927 0.00202546 0.0216505 -0.034578 -0.0661195 0.00125 103
1 0.15321 0.0365419 0.00133174 -0.0173143 0.000148194 0.173137 0.00125 104
1 0.112311 0.0964326 0.0023719 0.0299367 0.0607513 -0.0347589 0.00125 105
1 0.0498701 0.143894 0.00131065 0.0110745 -0.00285235 -0.270155 0.00125 106
1 0.0960135 0.173057 0.00232439 0.0196049 -0.00813224 -0.0165801 0.00125 107
1 0.221565 0.0663934 0.001557 -0.035591 0.0189227 0.12014 0.00125 108
1 0.0782098 0.0727692 0.00177044 0.0383471 0.0205452 -0.0831725 0.00125 109
1 0.201116 0.0347061 0.00149094 0.0185638 0.000607699 0.0877835 0.00125 110
1 0.101139 0.0806654 0.00128614 -0.0052012 0.0378109 -0.108568 0.00125 111
1 0.181471 0.0467268 0.00240207 -0.00696752 -0.0545898 -0.0658188 0.00125 112
1 0.118081 0.107241 0.00163372 0.0139674 0.0356343 -0.12573 0.00125 113
1 0.216311 0.0808301 0.0012656 -0.00817342 -0.0115247 0.187079 0.00125 114
1 0.22071 0.181146 0.00136233 -0.0590439 -0.0178452 -0.00915402 0.00125 115
1 0.129848 0.146097 0.00229912 -0.0141981 -0.0199711 -0.0379582 0.00125 116
1 0.0159342 0.146628 0.00215772 0.0188802 -0.0469542 -0.124487 0.00125 117
1 0.0714403 0.0509954 0.00165207 0.0101666 -0.0282245 -0.132625 0.00125 118
1 0.231406 0.0297379 0.00178123 -0.0156545 0.0522619 -0.240354 0.00125 119
1 0.0383586 0.202142 0.00154917 -0.0299025 0.000997629 -0.22296 0.00125 120
1 0.252217 0.259468 0.00141378 0.00343303 -0.0277476 -0.0769832 0.00125 121
1 0.00826711 0.226043 0.00172335 0.0526937 -0.0198486 -0.21385 0.00125 122
1 0.147303 0.186241 0.00178591 0.0335079 -0.00986374 -0.186434 0.00125 123
1 0.187284 0.152328 0.00123052 -0.00746389 0.0167883 -0.137926 0.00125 124
1 0.205078 0.237644 0.00141471 -0.00644801 -0.0443486 -0.230009 0.00125 125
1 0.235502 0.122653 0.00144413 -0.00283338 -0.0321315 0.219627 0.00125 126
1 0.0239258 0.0338353 0.00123139 0.035115 0.032612 0.0864539 0.00125 127
1 0.233412 0.105554 0.00137589 -0.0157456 -0.0482792 -0.162454 0.00125 128
1 0.0736695 0.171769 0.00168738 -0.0489816 0.0482206 -0.157357 0.00125 129
1 0.0681703 0.055627 0.00189935 -0.0322083 0.0852539 -0.138617 0.00125 130
1 0.0261069 0.212426 0.00136119 -0.00278451 -0.00264494 0.227051 0.00125 131
1 0.0888777 0.0652042 0.00125053 0.0178151 -0.0372588 0.227093 0.00125 132
1 0.177232 0.104468 0.00201893 0.0305465 -0.00290789 -0.0681147 0.00125 133
1 0.0229616 0.0832082 0.00142085 0.0229106 0.0149929 -0.0604562 0.00125 134
1 0.175275 0.0285894 0.00153227 0.0871186 -0.0290238 -0.0750612 0.00125 135
1 0.228356 0.0946466 0.00186591 -0.0238407 0.00269687 -0.163109 0.00125 136
1 0.0944593 0.206456 0.00178301 -0.00466881 -0.0475816 -0.0766378 0.00125 137
1 0.114807 0.0245161 0.00247205 0.0278849 -0.0240608 -0.0615383 0.00125 138
1 0.118857 0.225038 0.0015356 -0.00134671 -0.00555775 -0.187716 0.00125 139
1 0.165749 0.131691 0.00129506 -0.0265608 0.078273 -0.290914 0.00125 140
1 0.116098 0.0476075 0.00218303 -0.0309625 0.0133594 -0.068941 0.00125 141
1 0.00241787 0.00845894 0.00137879 0.0169356 -0.0417815 -0.101537 0.00125 142
1 0.153893 0.208378 0.00230797 -0.0419913 0.0373101 0.00127496 0.00125 143
1 0.195639 0.0135163 0.00196028 -0.0409082 0.0728908 -0.108031 0.00125 144
1 0.0170019 0.198268 0.00173263 -0.00490018 -0.0460569 -0.135304 0.00125 145
1 0.105645 0.0618139 0.00155663 0.0182314 -0.067514 -0.187906 0.00125 146
1 0.0193761 0.0818448 0.00123402 -0.0146462 -0.0200278 -0.224192 0.00125 147
1 0.168732 0.0258485 0.00186978 -0.0311903 -0.0307509 -0.119564 0.00125 148
1 0.247348 0.0757357 0.00246759 0.00263428 0.0468893 -0.0678649 0.00125 149
1 0.0918942 0.0588134 0.00217286 -0.0567509 0.000448416 -0.118049 0.00125 150
1 0.00493465 0.0233082 0.00223094 -0.0228759 0.084838 -0.137202 0.00125 151
1 0.157125 0.176859 0.00135574 0.0123708 -0.0352492 0.143296 0.00125 152
1 0.15817 0.0484387 0.00237716 0.0243679 0.0536112 -0.00986462 0.00125 153
1 0.050782 0.210759 0.00212798 -0.0334074 -0.0739888 -0.14617 0.00125 154
1 0.238457 0.0452153 0.00126596 0.0102404 0.0658742 0.00615297 0.00125 155
1 0.237306 0.0760953 0.00141704 -0.00834046 0.0473951 0.0241581 0.00125 156
1 0.164543 0.186996 0.00132093 0.0136076 -0.0535499 0.0221364 0.00125 157
1 0.191324 0.0194523 0.00141568 0.0408888 0.0396529 -0.18868 0.00125 158
1 0.114877 0.166427 0.00154507 0.0115216 -0.0309266 0.122261 0.00125 159
1 0.112004 0.0238755 0.00126486 -0.0245396 -0.0242351 0.0901179 0.00125 160
1 0.170275 0.0522374 0.00156141 -0.0431944 -0.0966658 -0.209253 0.00125 161
1 0.157945 0.191747 0.00123223 0.0146401 -0.0119452 -0.0102499 0.00125 162
1 0.00215574 0.0474325 0.00128256 0.0450661 0.0395495 -0.0538708 0.00125 163
1 0.250594 0.207262 0.00222069 -0.0141828 -0.0402211 -0.157649 0.00125 164
1 0.149378 0.255783 0.00141207 0.0226858 -0.0499192 -0.221736 0.00125 165
1 0.236028 0.204184 0.00130851 0.0330316 -0.0915365 0.101912 0.00125 166
1 0.213029 0.181862 0.0023859 -0.067062 -0.00903121 0.00526313 0.00125 167
1 0.0215443 0.127684 0.00166796 0.0352161 -0.0152547 -0.204812 0.00125 168
1 0.226066 0.243331 0.00222491 0.0246717 -0.0524855 -0.154484 0.00125 169
1 0.0731309 0.12602 0.0013876 -0.104982 -0.0513807 0.0184699 0.00125 170
1 0.072458 0.0613834 0.00205518 0.0131073 -0.0126882 -0.185305 0.00125 171
1 0.0190358 0.111793 0.00141562 0.0200058 0.0163648 -0.257544 0.00125 172
1 0.160244 0.0252553 0.00129382 0.000845368 -0.0275594 0.0931298 0.00125 173
1 0.170378 0.17925 0.00141552 -0.0149646 0.034809 0.223831 0.00125 174
1 0.0975847 0.199314 0.00153385 -0.0632069 0.073172 -0.0906563 0.00125 175
1 0.0126151 0.239498 0.00151691 0.0318008 0.0232521 -0.0886881 0.00125 176
1 0.0772074 0.132267 0.0017779 -0.0201172 0.00824712 -0.135707 0.00125 177
1 0.25363 0.0298047 0.00160113 0.0782033 0.0571508 -0.178298 0.00125 178
1 0.142051 0.0137443 0.00127606 -0.00926022 -0.0202526 0.201302 0.00125 179
1 0.144576 0.198467 0.00236853 0.0535355 0.0201877 -0.0294228 0.00125 180
1 0.229863 0.050625 0.00194047 -0.0350233 -0.0231899 -0.048816 0.00125 181
1 0.185883 0.0732828 0.00165056 -0.0162169 0.0609925 -0.165148 0.00125 182
1 0.00919924 0.175327 0.0013345 -0.0585206 0.0403954 -0.0314092 0.00125 183
1 0.218512 0.194791 0.00148305 0.0451172 -0.0277592 -0.153087 0.00125 184
1 0.0196912 0.0456718 0.00192587 0.0373713 -0.000345841 -0.160414 0.00125 185
1 0.159303 0.156757 0.00213559 -0.0725193 0.0191971 -0.0654619 0.00125 186
1 0.0270905 0.233069 0.001598 -0.0196591 -0.0194488 -0.210738 0.00125 187
1 0.143227 0.00162142 0.00156985 0.0248327 0.0270281 -0.241303 0.00125 188
1 0.0209777 0.188793 0.00136184 -0.0600905 0.0717925 0.00142514 0.00125 189
1 0.24311 0.194147 0.00190398 -0.0336327 0.0305346 -0.165768 0.00125 190
1 0.193633 0.0962831 0.00150325 -0.0179012 -0.0425403 -0.0876427 0.00125 191
1 0.130523 0.212324 0.00122751 -0.0651105 0.0132468 0.064507 0.00125 192
1 0.037386 0.163626 0.00165601 -0.00249947 0.0339187 -0.0739475 0.00125 193
1 0.0375758 0.19328 0.00213332 -0.00503169 -0.015552 -0.113666 0.00125 194
1 0.0530254 0.198114 0.00181678 -0.0379838 0.00895428 -0.128622 0.00125 195
1 0.25213 0.185808 0.0015989 0.0444627 -0.0296867 -0.206802 0.00125 196
1 0.230307 0.0122321 0.00144947 -0.0519416 0.0312567 -0.216552 0.00125 197
1 0.226694 0.128662 0.00135427 0.00908761 -0.0841269 0.118203 0.00125 198
1 0.246916 0.22576 0.00197555 0.0395433 -0.0337476 -0.145445 0.00125 199
1 0.241624 0.0923058 0.00169726 0.0720675 -0.0440825 -0.2426 0.00125 200
1 0.201851 0.118506 0.00157972 -0.0179292 0.00923008 -0.184763 0.00125 201
1 0.0363969 0.148066 0.00178869 0.0830761 -0.0598288 -0.0944732 0.00125 202
1 0.159748 0.0611132 0.00223789 0.0726864 0.00511417 -0.0460066 0.00125 203
1 0.107831 0.188981 0.00194737 -0.0262684 -0.0538076 -0.102348 0.00125 204
1 0.133843 0.0118941 0.00151472 -0.0329029 0.0523239 -0.1211 0.00125 205
1 0.193528 0.0239685 0.00155202 0.0056715 -0.00717669 0.10326 0.00125 206
1 0.131975 0.246512 0.00136064 -0.0629774 -0.0896549 0.127036 0.00125 207
1 0.120912 0.098639 0.00127302 0.0148595 0.0129948 0.0281565 0.00125 208
1 0.147959 0.0877872 0.002286 0.0236148 -0.102812 -0.11974 0.00125 209
1 0.224809 0.000947954 0.00163939 0.0207416 0.0114713 -0.247544 0.00125 210
1 0.0960578 0.180918 0.0015409 -0.0216565 -0.0251159 -0.150528 0.00125 211
1 0.0846365 0.197972 0.00158775 -0.0184675 -0.0237309 -0.112291 0.00125 212
1 0.226548 0.21476 0.0015391 0.0304069 -0.0364992 -0.15732 0.00125 213
1 0.0651225 0.0172652 0.00150723 -0.0216313 -0.0354756 -0.122698 0.00125 214
1 0.20745 0.030176 0.00178088 -0.0467301 0.0560585 -0.15371 0.00125 215
1 0.0753001 0.177178 0.0012482 -0.0594889 0.0115822 0.114928 0.00125 216
1 0.20712 0.226617 0.00126551 -0.0973535 0.0364871 -0.24034 0.00125 217
1 0.0767943 0.142336 0.00157226 -0.0313706 -0.0118765 -0.246494 0.00125 218
1 0.211255 0.117959 0.00128716 -0.0380285 -0.0938491 0.17607 0.00125 219
1 0.0686346 0.160078 0.00239852 -0.0311499 -0.0612166 -0.0172761 0.00125 220
1 0.138837 0.11046 0.00222974 0.00406787 0.0216399 -0.155196 0.00125 221
1 0.00662656 0.111582 0.00175836 -0.00784811 -0.0465503 -0.201441 0.00125 222
1 0.22207 0.0276536 0.00189416 -0.0818139 0.00688306 -0.161765 0.00125 223
1 0.226138 0.00861626 0.00165338 -0.0232531 -0.0517745 -0.107582 0.00125 224
1 0.212515 0.0514422 0.00130917 0.061965 -0.0220975 -0.00268892 0.00125 225
1 0.120566 0.0635649 0.00176453 -0.0203307 0.0418319 -0.225902 0.00125 226
1 0.00369189 0.100315 0.00204469 -0.0471435 0.0130032 -0.121467 0.00125 227
1 0.139279 0.102764 0.00201394 -0.0142741 0.135397 -0.0298026 0.00125 228
1 0.127751 0.0176953 0.00227842 0.0320411 0.074538 -0.0668981 0.00125 229
1 0.0805073 0.148351 0.0016914 -0.0898286 0.0023226 -0.190096 0.00125 230
1 0.0860752 0.0474374 0.00246546 -0.028851 -0.0298568 -0.089267 0.00125 231
1 0.0907228 0.012666 0.0014474 -0.0350187 0.0507882 -0.168101 0.00125 232
1 0.248848 0.237205 0.0012609 0.0120272 -0.0517063 0.0962491 0.00125 233
1 0.208113 0.124008 0.00123607 0.0583791 0.00301365 -0.0318009 0.00125 234
1 0.147179 0.145619 0.00133434 -0.013691 -0.0304466 0.214283 0.00125 235
1 0.186422 0.0186082 0.00174848 0.0810011 -0.0989221 -0.214158 0.00125 236
1 0.104434 0.0735654 0.00141266 -0.0360054 -0.0305964 -0.223154 0.00125 237
1 0.0828662 0.146679 0.00150134 0.060413 0.0297494 -0.210044 0.00125 238
1 0.214349 0.142832 0.00166335 -0.0731111 -0.00134788 0.138986 0.00125 239
1 0.11305 0.145062 0.00223477 0.0294898 0.0159877 -0.102105 0.00125 240
1 0.00733852 0.170961 0.0021108 0.00433404 0.0101506 -0.195483 0.00125 241
1 0.138112 0.190974 0.00180674 0.0104418 -0.0543662 -0.112779 0.00125 242
1 0.248842 0.0547321 0.00132477 -0.0749621 -0.0817696 0.128794 0.00125 243
1 0.249805 0.151448 0.00241394 0.0334863 -0.0202091 -0.0101188 0.00125 244
1 0.244243 0.188208 0.00215965 0.000343739 -0.0399943 -0.166155 0.00125 245
1 0.146966 0.237601 0.00225119 0.0533938 -0.0581806 -0.12497 0.00125 246
1 0.191852 0.0653519 0.00148428 0.01562 -0.00154688 -0.0842268 0.00125 247
1 0.196932 0.130773 0.00130146 -0.0258653 0.00426958 0.0634117 0.00125 248
1 0.202672 0.135732 0.00249948 -0.0156812 -0.0165438 -0.0254357 0.00125 249
1 0.116702 0.0922432 0.00130136 -0.104281 -0.0841315 0.0721486 0.00125 250
1 0.0407901 0.19972 0.0013682 -0.0731296 0.013833 0.151035 0.00125 251
1 0.235394 0.0743635 0.00154475 -0.049585 -0.0272071 0.159937 0.00125 252
1 0.147701 0.204268 0.00156815 -0.0537455 -0.0286264 -0.227895 0.00125 253
1 0.0688959 0.0503867 0.0015663 0.00996902 -0.0190221 0.134384 0.00125 254
1 0.0452086 0.0722251 0.0016839 -0.0108095 -0.00866094 -0.198408 0.00125 255
1 0.00929312 0.0496517 0.00130899 -0.012787 -0.100151 0.115924 0.00125 256
1 0.2266 0.067628 0.0012476 0.00525197 -0.0173104 -0.0879023 0.00125 257
1 0.252826 0.0219352 0.00185984 0.0623369 0.00528667 -0.156372 0.00125 258
1 0.0819491 0.197288 0.00146299 -0.0845674 -0.0367633 -0.198309 0.00125 259
1 0.251772 0.0765323 0.00128559 -0.0170419 0.0376188 0.220309 0.00125 260
1 0.186532 0.0832603 0.00144811 0.0383569 0.011861 -0.254733 0.00125 261
1 0.259566 0.153245 0.00176987 0.00651016 0.0249158 -0.0603364 0.00125 262
1 0.058778 0.00327545 0.00139845 -0.0102307 -0.0351268 0.122847 0.00125 263
1 0.0236118 0.136829 0.00171075 0.0112921 0.0255139 -0.125142 0.00125 264
1 0.133134 0.23492 0.00126674 -0.0202702 -0.0781053 -0.0342089 0.00125 265
1 0.241005 0.11808 0.00165956 -0.0363302 0.0260969 -0.140448 0.00125 266
1 0.23253 0.0877502 0.00123818 -0.0339701 -0.036683 0.214808 0.00125 267
1 0.114133 0.0845282 0.00184394 0.0200326 -0.0417508 -0.209474 0.00125 268
1 0.169787 0.189012 0.00156917 -0.000469928 0.0668039 -0.110734 0.00125 269
1 0.0469283 0.170564 0.00184104 -0.0252207 -0.0460081 -0.195417 0.00125 270
1 0.215511 0.211005 0.00156302 0.0292912 -0.0763794 -0.11928 0.00125 271
1 0.20268 0.138541 0.00191857 -0.0137633 0.0226037 -0.0508456 0.00125 272
1 0.0270494 0.223959 0.0012791 -0.0123616 -0.0396802 0.204681 0.00125 273
1 0.232168 0.0908957 0.00136444 -0.0460021 0.022421 0.17756 0.00125 274
1 0.233502 0.0567698 0.00171321 -0.00467867 -0.073861 0.141756 0.00125 275
1 0.0987181 0.012806 0.00222367 0.00195173 -0.0358254 -0.153408 0.00125 276
1 0.249915 0.244687 0.0013533 0.0406198 -0.0185623 0.202167 0.00125 277
1 0.252469 0.0987392 0.001263 0.0205447 0.0316601 0.150037 0.00125 278
1 0.243885 0.0559561 0.00168822 0.0111928 0.00852567 -0.19745 0.00125 279
1 0.227277 0.150824 0.00184164 0.0488236 -0.0409519 -0.132826 0.00125 280
1 0.250281 0.148857 0.00192611 0.0166141 0.0146063 -0.12072 0.00125 281
1 0.190855 0.134322 0.00143599 -0.00612836 -0.0326132 0.148349 0.00125 282
1 0.244063 0.0659799 0.00168039 -0.00931524 0.0632748 -0.093747 0.00125 283
1 0.21898 0.243314 0.00130766 0.0490264 0.0408606 -0.19254 0.00125 284
1 0.215677 0.147533 0.00123619 -0.0860634 -0.0264385 -0.0823366 0.00125 285
1 0.0420202 0.179668 0.00130788 -0.0203509 -0.0600776 0.032989 0.00125 286
1 0.137662 0.0281799 0.00165745 -0.01717 0.0308624 -0.215055 0.00125 287
1 0.165176 0.166521 0.00243157 0.0237845 -0.0177594 -0.0933932 0.00125 288
1 0.13942 0.0608359 0.00129621 -0.034978 0.0212261 0.110655 0.00125 289
1 0.0996336 0.257913 0.00135297 0.0390048 0.0776984 -0.115172 0.00125 290
1 0.194023 0.106295 0.00150997 -0.00774422 -0.0582231 -0.118866 0.00125 291
1 0.0656944 0.156272 0.00169888 0.000742189 3.07305e-05 -0.191435 0.00125 292
1 0.199084 0.0812022 0.00130557 0.00661742 -0.0228912 -0.291645 0.00125 293
1 0.027572 0.0307746 0.0013388 0.000630984 0.00813229 0.213173 0.00125 294
1 0.182254 0.139515 0.00175729 -0.0517148 -0.0215509 -0.0550811 0.00125 295
1 0.109032 0.120657 0.00203055 0.0366376 0.0386777 -0.166719 0.00125 296
1 0.176989 0.163746 0.00168332 -0.024486 0.012403 -0.0674717 0.00125 297
1 0.237193 0.114215 0.00149602 0.0739597 0.0677921 0.0715917 0.00125 298
1 0.108699 0.0728885 0.00126895 -0.013073 -0.00846114 -0.0355134 0.00125 299
1 0.105159 0.181167 0.00189916 -0.00279665 -0.00851885 -0.204492 0.00125 300
1 0.189897 0.152711 0.00153365 0.0148559 -0.0267114 0.176639 0.00125 301
1 0.207571 0.136558 0.00125945 -0.00206586 -0.000890389 0.200421 0.00125 302
1 0.21902 0.230811 0.00195966 -0.0138139 0.0472534 -0.130958 0.00125 303
1 0.171253 0.021654 0.00190056 -0.0222769 -0.0554963 -0.0990551 0.00125 304
1 0.0595975 0.122464 0.00141197 -0.110634 -0.0209348 -0.114223 0.00125 305
1 0.108895 0.103395 0.00192856 0.010043 0.0557083 -0.0402837 0.00125 306
1 0.108421 0.205025 0.00156575 0.00620511 -0.00282538 -0.152949 0.00125 307
1 0.154471 0.155271 0.00152185 0.0122368 -0.00834018 -0.113155 0.00125 308
1 0.00921565 0.111204 0.00126782 0.0352475 0.0032994 0.117947 0.00125 309
1 0.0375486 0.216736 0.0013343 0.0321383 0.000989932 0.0585267 0.00125 310
1 0.0363595 0.00174669 0.001403 -0.101791 0.0135979 -0.132737 0.00125 311
1 0.0925956 0.0963548 0.00172944 0.0190335 0.0371206 -0.0992862 0.00125 312
1 0.238926 0.142673 0.00130616 -0.0385727 0.0546617 -0.222622 0.00125 313
1 0.1245 0.247369 0.00185579 -0.0190976 0.0615193 -0.138019 0.00125 314
1 0.154186 0.132487 0.00145887 -0.117052 -0.00727093 0.0944675 0.00125 315
1 0.168638 0.132058 0.00143407 0.0279527 -0.0569745 0.0884856 0.00125 316
1 0.125043 0.0621248 0.00206792 0.0526287 0.0681981 -0.182245 0.00125 317
1 0.110265 0.200604 0.00172946 0.0115622 -0.0627231 -0.120922 0.00125 318
1 0.233807 0.240643 0.00127318 0.0061489 -0.0220613 -0.121517 0.00125 319
1 0.00712748 0.151313 0.00132581 0.0155896 0.0633845 -0.125407 0.00125 320
1 0.173145 0.122432 0.00143336 -0.00662024 0.0306248 0.183417 0.00125 321
1 0.0664286 0.0922726 0.00227139 0.00495166 -0.00178087 -0.0433661 0.00125 322
1 0.253513 0.11637 0.0016866 -0.0157891 0.0821722 -0.178606 0.00125 323
1 0.151179 0.0761615 0.00178656 -0.0377272 0.0571579 -0.128825 0.00125 324
1 0.121345 0.226403 0.00145398 -0.0440236 -0.0327042 -0.185716 0.00125 325
1 0.222137 0.00444965 0.002404 0.0279593 -0.00160351 -0.100359 0.00125 326
1 0.184388 0.00346818 0.00161489 0.00389093 -0.0386689 -0.23762 0.00125 327
1 0.168544 0.00122311 0.00245899 0.00138325 -0.00604977 -0.0397354 0.00125 328
1 0.0025072 0.105379 0.00130883 0.0145976 0.0380354 -0.107454 0.00125 329
1 0.241338 0.253051 0.00184374 -0.048051 -0.0359593 -0.179299 0.00125 330
1 0.0964199 0.109969 0.00144974 0.0655848 -0.0251748 -0.20179 0.00125 331
1 0.234755 0.0386606 0.00226202 -0.0445024 0.0454946 -0.0881555 0.00125 332
1 0.00611202 0.0791989 0.00168065 -0.0109098 -0.0444006 -0.09558 0.00125 333
1 0.157906 0.151634 0.00125856 -0.0528992 -0.0667655 -0.0972924 0.00125 334
1 0.0872748 0.185986 0.00162121 0.00499137 -0.0105816 -0.232289 0.00125 335
1 0.133465 0.169176 0.00233795 0.0225141 0.0369273 -0.08741 0.00125 336
1 0.126317 0.0220732 0.00129233 -0.00624036 -0.0272249 -0.0217218 0.00125 337
1 0.103345 0.251329 0.00179897 -0.0604605 -0.0413824 -0.106717 0.00125 338
1 0.03458 0.00926337 0.00179011 0.0286697 0.0226199 -0.109093 0.00125 339
1 0.242034 0.140566 0.00134614 0.0739662 -0.0309002 -0.229345 0.00125 340
1 0.081091 0.141694 0.0019412 -0.0346957 0.0549615 -0.147211 0.00125 341
1 0.0159013 0.238762 0.00145943 -0.0313627 0.0419445 -0.157119 0.00125 342
1 0.00283529 0.1468 0.00134056 0.0169383 0.0114876 -0.215507 0.00125 343
1 0.169085 0.145286 0.00156434 -0.0764256 -0.0247841 -0.215384 0.00125 344
1 0.125217 0.0890809 0.00139468 0.000600471 0.012931 -0.176257 0.00125 345
1 0.0835859 0.106437 0.00234593 0.018723 0.0132 -0.0320951 0.00125 346
1 0.190182 0.224846 0.00140342 -0.0306161 -0.0177947 -0.242478 0.00125 347
1 0.0115988 0.257993 0.00147237 0.0830872 -0.0329539 -0.249969 0.00125 348
1 0.251188 0.164957 0.00126968 0.0376145 -0.028854 0.0701685 0.00125 349
1 0.0111448 0.235072 0.00204458 0.0200918 0.0448728 -0.200434 0.00125 350
1 0.116943 0.0595431 0.00184505 0.00355342 0.0695863 -0.0513202 0.00125 351
1 0.0603163 0.177779 0.00134793 0.00508764 0.0368048 0.196608 0.00125 352
1 0.247072 0.0135365 0.00188973 -0.0746117 -0.0175336 -0.232422 0.00125 353
1 0.0854396 0.0871651 0.00131029 0.0138525 0.00511183 0.101409 0.00125 354
1 0.1179 0.0456104 0.00154131 -0.0385433 0.0811292 -0.230537 0.00125 355
1 0.208373 0.0828848 0.00205523 -0.0364911 -0.00171239 -0.149977 0.00125 356
1 0.109801 0.131345 0.00123401 -0.025992 0.0984373 -0.0948712 0.00125 357
1 0.132113 0.163531 0.00137722 -0.012488 -0.0124862 0.198254 0.00125 358
1 0.23199 0.174435 0.00165505 -0.0716749 -0.0290252 -0.195499 0.00125 359
1 0.143316 0.0188756 0.00122875 -0.00258418 -0.0221378 -0.135963 0.00125 360
1 0.118364 0.233183 0.00137803 -0.00271185 -0.0702836 -0.155527 0.00125 361
1 0.109088 0.110844 0.00229713 0.0787932 0.0983052 -0.0126537 0.00125 362
1 0.0248904 0.255915 0.0013778 0.0327826 -0.0237511 -0.203219 0.00125 363
1 0.258664 0.0276068 0.00130084 -0.0204626 -0.00931995 0.198567 0.00125 364
1 0.0703202 0.00176767 0.00184139 -0.0350197 0.082959 -0.160887 0.00125 365
1 0.0254668 0.154681 0.00222057 0.00256846 0.00482631 -0.0667854 0.00125 366
1 0.133626 0.195217 0.00225584 -0.0534051 0.0385488 -0.0583599 0.00125 367
1 0.143463 0.0284643 0.00188538 -0.0632073 0.00764423 -0.214706 0.00125 368
1 0.169446 0.0685064 0.00190306 0.0289802 0.0476424 -0.214544 0.00125 369
1 0.215415 0.0380633 0.00177627 0.00661147 0.0345731 -0.158461 0.00125 370
1 0.185857 0.034953 0.00138381 -0.0560531 0.0525855 -0.223505 0.00125 371
1 0.185629 0.210644 0.0012733 0.0156162 0.0392604 -0.271925 0.00125 372
1 0.25524 0.24344 0.00122998 0.0198508 0.0552761 -0.0867231 0.00125 373
1 0.00202492 0.220485 0.00133228 0.0459222 -0.017106 -0.167482 0.00125 374
1 0.176147 0.157988 0.00194384 0.0721025 -0.0307349 -0.101025 0.00125 375
1 0.118115 0.252842 0.00145205 -0.0155573 0.0137794 -0.250347 0.00125 376
1 0.230357 0.186202 0.00125078 0.113312 -0.000118426 0.117992 0.00125 377
1 0.132695 0.0289265 0.00167546 -0.0669795 0.0513821 -0.18007 0.00125 378
1 0.113494 0.109265 0.00151546 0.00343711 0.0423672 -0.211185 0.00125 379
1 0.0859689 0.0574367 0.00130525 -0.0167302 0.0052324 -0.126877 0.00125 380
1 0.0889709 0.235027 0.00162007 -0.0151547 -0.000876255 -0.212955 0.00125 381
1 0.00625337 0.0177789 0.00227511 -0.0188377 -0.000505214 -0.100728 0.00125 382
1 0.239203 0.177235 0.00127278 -0.0412422 0.00618065 0.021286 0.00125 383
1 0.0455345 0.185849 0.00178521 0.0131736 -0.032532 -0.248134 0.00125 384
1 0.0718373 0.173447 0.0022825 0.0854528 -0.00253988 -0.0622292 0.00125 385
1 0.0634791 0.00505679 0.00194808 -0.0289136 -0.0136346 -0.0947803 0.00125 386
1 0.0934719 0.0989048 0.00156588 0.0365609 -0.0372096 -0.0913771 0.00125 387
1 0.244432 0.0634194 0.0016278 0.0556775 -0.00228369 -0.099571 0.00125 388
1 0.106509 0.0642593 0.00135806 -0.0541716 0.0156905 -0.167921 0.00125 389
1 0.0152162 0.068482 0.00138602 -0.0442589 0.00217306 -0.1738 0.00125 390
1 0.219447 0.164004 0.00204402 -0.0128968 0.01606 -0.176752 0.00125 391
1 0.260225 0.150667 0.00196396 -0.0134655 0.0767284 -0.181347 0.00125 392
1 0.135808 0.167295 0.00225826 0.00545694 -0.068841 -0.0895023 0.00125 393
1 0.0769094 0.185722 0.00127227 0.0284118 0.00171578 0.196861 0.00125 394
1 0.0591577 0.119923 0.00149643 0.010308 0.0331543 -0.109745 0.00125 395
1 0.103326 0.0462623 0.00122926 -0.0182691 -0.0480064 -0.0261323 0.00125 396
1 0.0331285 0.154005 0.00147517 -0.0150174 -0.0251087 -0.204468 0.00125 397
1 0.138685 0.226393 0.00138463 0.00596351 0.0568267 -0.148015 0.00125 398
1 0.132067 0.0714844 0.00238289 -0.0304084 0.0363239 -0.102372 0.00125 399