ITEM: TIMESTEP
1000000
ITEM: NUMBER OF ATOMS
10000
ITEM: BOX BOUNDS pp pp ff
0.0000000000000000e+00 3.9667573375000004e-01
0.0000000000000000e+00 3.9667573375000004e-01
-1.2500000000000001e-02 1.2500000000000001e-02
ITEM: ATOMS type x y z vx vy vz radius id
1 0.280689 0.279381 0.00140696 0.0117087 0.0292564 0.156196 0.00125 1
1 0.339214 0.110531 0.00143642 -0.00337979 -0.00754578 -0.28991 0.00125 2
1 0.122955 0.114943 0.00238089 0.0110826 0.0222452 -0.0176077 0.00125 3
1 0.115296 0.339771 0.00123053 -0.00794761 -0.00842216 0.0246649 0.00125 4
1 0.0851713 0.0626963 0.00203373 -0.018425 0.0011041 -0.0774959 0.00125 5
1 0.278656 0.0462609 0.00194377 0.0108199 -0.0630237 -0.142202 0.00125 6
1 0.179716 0.22057 0.00130675 0.0344347 0.0137941 -0.231016 0.00125 7
1 0.320065 0.248101 0.00128837 0.023637 0.00146181 0.187532 0.00125 8
1 0.239779 0.356362 0.00165201 0.126094 0.0404695 -0.191553 0.00125 9
1 0.21026 0.375397 0.0013227 0.00421431 0.00522472 0.194574 0.00125 10
1 0.133144 0.249072 0.00128461 -0.00676073 -0.00151715 0.0848274 0.00125 11
1 0.271314 0.184976 0.00203036 -0.0183119 -0.0128927 -0.0624951 0.00125 12
1 0.00335565 0.391866 0.00150298 -0.0156019 0.0085402 -0.198612 0.00125 13
1 0.311092 0.193271 0.00205585 0.0133833 0.00895472 -0.211075 0.00125 14
1 0.00821058 0.381883 0.0012344 -0.00735915 -0.0126191 0.144208 0.00125 15
1 0.0195234 0.317972 0.00178359 0.0239569 0.0179507 -0.222377 0.00125 16
1 0.300222 0.258083 0.00142713 0.00485338 -0.00561654 0.239674 0.00125 17
1 0.33656 0.20937 0.00145322 -0.00343823 0.0277759 0.13438 0.00125 18
1 0.0816155 0.0320483 0.00124937 0.00982344 0.0136156 -0.315814 0.00125 19
1 0.048298 0.391249 0.00234279 -0.0325193 0.00953382 -0.0386387 0.00125 20
1 0.156603 0.109852 0.00141884 -0.00458871 -0.0131967 -0.240206 0.00125 21
1 0.169114 0.19164 0.0015164 0.00866143 -0.00201902 -0.232147 0.00125 22
1 0.288264 0.237913 0.00170445 0.00420172 -0.0124175 -0.227578 0.00125 23
1 0.233174 0.199034 0.00132895 0.0245909 -0.00402087 -0.238913 0.00125 24
1 0.309848 0.202197 0.00170444 0.00439097 0.000172384 -0.225602 0.00125 25
1 0.192049 0.0757294 0.00137395 0.000755122 0.00244417 -0.239237 0.00125 26
1 0.353845 0.0474384 0.00222301 -0.000154536 -0.00666574 -0.177078 0.00125 27
1 0.38897 0.319687 0.00128232 0.00645099 0.0143042 -0.23532 0.00125 28
1 0.31448 0.341521 0.00155422 -0.0141346 0.0359709 0.098992 0.00125 29
1 0.30789 0.0571768 0.00123146 -0.0304179 0.00546497 0.0186352 0.00125 30
1 0.375887 0.0820903 0.00162936 -0.0196349 -0.000756213 0.0958159 0.00125 31
1 0.0733172 0.156242 0.00132631 -0.000452608 0.0244015 0.026764 0.00125 32
1 0.261519 0.0800192 0.00158337 0.0141869 -0.0109325 -0.0940421 0.00125 33
1 0.348537 0.341567 0.00196032 0.0202962 -0.00944557 -0.0682124 0.00125 34
1 0.352054 0.00486911 0.00164449 -0.00916095 0.0054128 -0.225865 0.00125 35
1 0.059592 0.0530914 0.00126895 0.000311999 0.00165665 -0.231171 0.00125 36
1 0.254134 0.156742 0.00212984 0.0142863 -0.0159816 -0.165761 0.00125 37
1 0.103089 0.323243 0.00169237 -0.026313 0.012238 -0.222252 0.00125 38
1 0.229146 0.153778 0.00187136 -0.00918247 -0.00883323 -0.221507 0.00125 39
1 0.200115 0.170646 0.00224338 -0.0487416 0.0212659 -0.054243 0.00125 40
1 0.292413 0.0987032 0.00199904 -0.00447721 -0.0149154 -0.186619 0.00125 41
1 0.348956 0.27643 0.00152645 -0.0187601 0.00979669 -0.237602 0.00125 42
1 0.0886832 0.320666 0.0012714 -0.0103095 0.0304372 -0.226611 0.00125 43
1 0.303403 0.0585987 0.00231293 -0.00279198 -0.0100164 0.0187811 0.00125 44
1 0.230471 0.164205 0.00211799 0.0026512 -0.00412349 -0.0583483 0.00125 45
1 0.311297 0.163422 0.00175388 0.00604945 -0.00489165 -0.22553 0.00125 46
1 0.17019 0.201161 0.00145437 -0.0126345 0.00634497 0.0950705 0.00125 47
1 0.0702274 0.0248901 0.00125511 -0.0151569 0.0185194 0.245377 0.00125 48
1 0.118697 0.07423 0.0014957 -0.00771036 -0.00111517 0.151372 0.00125 49
1 0.0850382 0.321262 0.00231909 0.0259446 -0.0433938 -0.0363171 0.00125 50
1 0.185758 0.394764 0.00152679 0.0071855 -0.00774744 0.110406 0.00125 51
1 0.381878 0.247857 0.00154379 -0.0119984 0.000891257 -0.192003 0.00125 52
1 0.375196 0.167877 0.0012344 0.0187734 0.00341518 -0.191547 0.00125 53
1 0.13204 0.0740644 0.00141095 0.0139131 0.00200837 -0.239585 0.00125 54
1 0.0263358 0.0939834 0.00131025 0.0124718 0.0151541 0.180077 0.00125 55
1 0.151397 0.113492 0.00167047 0.0139479 -0.0129645 -0.244605 0.00125 56
1 0.318757 0.126528 0.00153235 -0.00539922 0.0328155 0.0771667 0.00125 57
1 0.296925 0.0175536 0.00133482 0.00590886 -0.0182313 -0.253222 0.00125 58
1 0.259836 0.345917 0.00215718 0.0217117 0.0108647 -0.160018 0.00125 59
1 0.28963 0.345089 0.0014524 -0.00665007 0.0236991 -0.250019 0.00125 60
1 0.279296 0.327945 0.00144961 0.00165562 -0.00472876 0.100599 0.00125 61
1 0.150737 0.298606 0.00129664 -0.000889455 0.0120075 -0.223763 0.00125 62
1 0.271069 0.033259 0.00123616 -0.0130024 0.0199692 0.138326 0.00125 63
1 0.395112 0.0608657 0.00172347 -0.014211 0.0140283 -0.220853 0.00125 64
1 0.076902 0.0428929 0.00178373 0.00120331 -0.0129908 -0.0370167 0.00125 65
1 0.118856 0.225706 0.00130218 0.00606105 -0.00238301 0.184859 0.00125 66
1 0.273622 0.0138706 0.00180741 -0.0126082 0.0127068 -0.257304 0.00125 67
1 0.192307 0.0918322 0.00158055 -0.00122525 -0.00480565 0.0987608 0.00125 68
1 0.282667 0.266975 0.00132506 0.0191121 0.0171106 -0.204546 0.00125 69
1 0.218845 0.187988 0.00243069 0.0109982 -0.00572707 -0.0571657 0.00125 70
1 0.129036 0.354646 0.00153477 -0.00353924 0.0097913 -0.237007 0.00125 71
1 0.378992 0.0486399 0.00243025 -0.00649566 0.0145002 -0.0199958 0.00125 72
1 0.128806 0.180608 0.00143407 0.0905816 0.104359 0.00560657 0.00125 73
1 0.01498 0.275366 0.00123044 0.00236233 -0.00330033 0.0385376 0.00125 74
1 0.248057 0.109691 0.00150771 -0.00247482 0.0135204 -0.236952 0.00125 75
1 0.0627877 0.196169 0.00129276 0.00160946 0.014956 -0.239238 0.00125 76
1 0.250525 0.123349 0.00238388 0.00880842 0.0293169 -0.040574 0.00125 77
1 0.184078 0.208915 0.00159883 0.00443385 -0.0101199 0.0963294 0.00125 78
1 0.0658887 0.0387349 0.00130945 0.00996358 -0.00970781 0.181947 0.00125 79
1 0.0255341 0.346922 0.00176329 0.014228 -0.013521 -0.216559 0.00125 80
1 0.252501 0.236564 0.0016979 0.00951037 -0.00444092 -0.223014 0.00125 81
1 0.131039 0.384574 0.00229563 0.0029461 0.0219186 -0.128499 0.00125 82
1 0.115464 0.388425 0.00137167 -0.0099004 0.00585087 -0.227957 0.00125 83
1 0.103381 0.355843 0.00155699 0.00166543 -0.013613 0.0862706 0.00125 84
1 0.300477 0.336338 0.00187147 0.0500075 -0.0182758 -0.212165 0.00125 85
1 0.258258 0.0415052 0.0023209 0.0229875 -0.00220756 -0.120202 0.00125 86
1 0.388359 0.352276 0.00129034 0.000467319 0.00536148 -0.25047 0.00125 87
1 0.101687 0.338818 0.0014203 -0.006555 0.0148404 -0.100796 0.00125 88
1 0.359666 0.064184 0.00135345 -0.0139447 0.00187043 0.154305 0.00125 89
1 0.0865549 0.179718 0.00169623 -0.00737755 0.00605376 -0.223936 0.00125 90
1 0.164752 0.392253 0.00128439 0.000577203 -0.00442597 -0.00611358 0.00125 91
1 0.00840805 0.0546756 0.0017059 0.0253912 0.0125051 -0.22821 0.00125 92
1 0.239118 0.0821656 0.00157838 -0.0251293 -0.022944 -0.234397 0.00125 93
1 0.223284 0.0859173 0.00170766 0.00340682 -0.00174688 0.111116 0.00125 94
1 0.154383 0.0516344 0.00161962 0.0203521 -0.0112421 -0.176065 0.00125 95
1 0.283956 0.0608027 0.00128738 -0.0102269 0.00896828 0.191013 0.00125 96
1 0.233139 0.0519949 0.00136054 -0.00579605 0.014024 -0.104004 0.00125 97
1 0.0996931 0.00196445 0.00140331 0.0167976 0.00269957 -0.230113 0.00125 98
1 0.235698 0.332346 0.00200977 -0.0710422 0.000807121 -0.0257692 0.00125 99
1 0.112439 0.356345 0.00157171 0.0119588 -0.00327051 -0.231123 0.00125 100
1 0.331203 0.0429726 0.00168515 -0.020337 0.0309389 -0.164323 0.00125 101
1 0.260264 0.368081 0.00142257 0.0062095 0.0109698 0.110403 0.00125 102
1 0.356492 0.292648 0.00130989 -0.0340569 0.0012651 -0.23486 0.00125 103
1 0.0249041 0.37535 0.00240396 0.00571217 0.0327706 -0.0984434 0.00125 104
1 0.221138 0.329313 0.00147511 0.0124721 -2.96278e-05 -0.234614 0.00125 105
1 0.111539 0.189259 0.00131508 -0.0135109 0.0128998 -0.232546 0.00125 106
1 0.227618 0.29214 0.00217 0.00531709 0.00499117 -0.018161 0.00125 107
1 0.266707 0.373004 0.00172707 0.0180556 -0.000679702 -0.0885784 0.00125 108
1 0.223078 0.0167235 0.00146459 0.00512204 0.000201136 -0.180609 0.00125 109
1 0.285475 0.370584 0.00202102 0.00408342 0.0127843 -0.0302402 0.00125 110
1 0.0245157 0.214144 0.00126514 0.0015769 -0.00289566 0.176405 0.00125 111
1 0.0713483 0.196051 0.00141693 -0.0160109 0.0127642 0.108125 0.00125 112
1 0.29373 0.292595 0.00129359 -0.0525694 0.0183361 0.267387 0.00125 113
1 0.0356798 0.297571 0.00192923 -0.0768117 0.0498883 -0.217226 0.00125 114
1 0.386412 0.0500234 0.0012858 0.000835522 0.00129835 0.0256529 0.00125 115
1 0.172501 0.281795 0.00133437 0.0325529 -0.0204751 -0.235829 0.00125 116
1 0.282066 0.389512 0.00168666 0.00633745 0.0239326 0.0986623 0.00125 117
1 0.0215836 0.0297859 0.00147155 0.00820432 -0.00335044 0.116742 0.00125 118
1 0.211508 0.147164 0.0022492 -0.019267 0.0070329 -0.0515331 0.00125 119
1 0.296894 0.0056527 0.00135901 -0.0115019 -0.0126072 0.163849 0.00125 120
1 0.175062 0.303497 0.0022363 -0.0254557 -0.0398964 -0.0586263 0.00125 121
1 0.047714 0.0286052 0.00154435 -0.000697609 -0.0263816 0.10287 0.00125 122
1 0.154497 0.308359 0.00172979 0.046215 -0.0331427 -0.22177 0.00125 123
1 0.115882 0.272312 0.00133542 -0.0208728 -0.0115651 -0.277448 0.00125 124
1 0.390911 0.21145 0.00175793 0.0595875 -0.0262485 -0.228528 0.00125 125
1 0.138194 0.368608 0.00139578 -0.0300906 0.00865412 0.16206 0.00125 126
1 0.337847 0.294931 0.00154271 -0.0173901 0.0111203 -0.193559 0.00125 127
1 0.109573 0.0246669 0.00241619 -2.46313e-05 0.0158186 -0.0211081 0.00125 128
1 0.185968 0.347989 0.00133401 0.0137127 0.00767408 0.15778 0.00125 129
1 0.264034 0.108546 0.00236033 -0.00503603 -0.00725106 -0.0427199 0.00125 130
1 0.194101 0.245884 0.00183464 -0.0366768 0.037102 -0.145906 0.00125 131
1 0.333047 0.165391 0.00174162 0.000337017 -0.035144 -0.187626 0.00125 132
1 0.0622858 0.144021 0.00126384 0.00918769 0.0107327 -0.225336 0.00125 133
1 0.079989 0.14634 0.00227288 -0.0118559 -0.0140774 0.0203333 0.00125 134
1 0.263916 0.0268118 0.00127194 0.00196026 0.0322131 0.200957 0.00125 135
1 0.044822 0.0510824 0.00124147 -0.00319045 0.0175944 0.176769 0.00125 136
1 0.129421 0.0162087 0.00128305 -0.00726159 -0.0230478 0.17436 0.00125 137
1 0.25313 0.0851311 0.00134159 -0.00137112 -0.0312294 0.186801 0.00125 138
1 0.209244 0.200472 0.0018683 -0.00133549 -0.0193897 -0.0839881 0.00125 139
1 0.26587 0.315992 0.00171225 0.00235953 -0.0846156 -0.224366 0.00125 140
1 0.0719132 0.0437367 0.00180262 0.0305048 -0.0250293 -0.0874686 0.00125 141
1 0.018155 0.161152 0.00125432 0.00596357 -0.0369779 -0.234805 0.00125 142
1 0.274754 0.191587 0.00211215 0.0233727 0.000912526 -0.205243 0.00125 143
1 0.110619 0.164067 0.00138846 0.0584264 0.000953853 -0.217611 0.00125 144
1 0.0831397 0.335123 0.00159673 -0.0529209 -0.023022 -0.197213 0.00125 145
1 0.0688158 0.237638 0.00185107 -0.00170601 0.0184362 -0.0743688 0.00125 146
1 0.125347 0.352517 0.00134465 -0.0175465 0.00420748 0.151287 0.00125 147
1 0.154186 0.106936 0.00160029 -0.00301797 -0.0083657 -0.250735 0.00125 148
1 0.0317762 0.18876 0.00131277 0.048325 0.0425383 -0.253447 0.00125 149
1 0.250283 0.269587 0.00128979 -0.0228575 -0.00159809 0.193791 0.00125 150
1 0.0702816 0.0157663 0.00172245 0.0397041 -0.00810688 -0.271349 0.00125 151
1 0.143631 0.350737 0.0014897 -0.00812866 0.0104097 0.12152 0.00125 152
1 0.160402 0.313148 0.00140589 0.00779223 -0.00207732 -0.185696 0.00125 153
1 0.178976 0.164305 0.00194169 -0.00252439 -0.00512649 -0.183675 0.00125 154
1 0.321243 0.276918 0.00145204 -0.0151789 -0.0221117 0.135669 0.00125 155
1 0.0889771 0.243559 0.00241504 9.01651e-05 -0.00546174 -0.0369502 0.00125 156
1 0.188047 0.363225 0.00167154 0.00865982 0.00266188 -0.27585 0.00125 157
1 0.115002 0.0322076 0.00134942 -0.0127768 -0.0185411 -0.297454 0.00125 158
1 0.128952 0.265436 0.00169269 0.000358846 -0.0164774 0.0763559 0.00125 159
1 0.0201461 0.394387 0.00153056 0.00730537 0.00313924 -0.182917 0.00125 160
1 0.0720707 0.266876 0.00130622 0.00282939 0.000439159 0.0194214 0.00125 161
1 0.28799 0.0917685 0.00226459 0.00985083 -0.011665 0.0207286 0.00125 162
1 0.136867 0.270407 0.00219585 0.0172783 -0.00256838 0.00871961 0.00125 163
1 0.344299 0.323458 0.00177164 0.00504749 0.00966734 -0.198951 0.00125 164
1 0.00514148 0.324596 0.0013941 -0.00881068 -0.0159097 0.149819 0.00125 165
1 0.359646 0.182232 0.00140853 0.00772386 0.00632253 0.150559 0.00125 166
1 0.306022 0.0912374 0.0015581 0.000495049 0.0180249 0.0849257 0.00125 167
1 0.124562 0.0888903 0.00125048 -0.00619983 0.00515525 -0.229385 0.00125 168
1 0.205198 0.210314 0.00140141 -0.0366509 -0.0046495 0.15976 0.00125 169
1 0.130819 0.294805 0.00189565 0.0123094 0.00226549 -0.206953 0.00125 170
1 0.0524422 0.00862229 0.00193382 0.00830617 -0.0407872 -0.200528 0.00125 171
1 0.0815095 0.184968 0.00128495 0.00145087 -0.00606329 0.269136 0.00125 172
1 0.18566 0.314159 0.0013394 0.0234977 -0.0124567 -0.235843 0.00125 173
1 0.381339 0.343331 0.00131931 0.00578838 -0.0129144 -0.262787 0.00125 174
1 0.0252544 0.190413 0.00181606 -0.00697174 -0.00394941 -0.0765597 0.00125 175
1 0.0334819 0.0537226 0.00128576 -0.0116682 -0.035645 -0.276464 0.00125 176
1 0.0303581 0.214727 0.00134335 -0.00245828 0.000953508 0.170755 0.00125 177
1 0.320481 0.213897 0.00161921 0.0345698 0.02125 0.0845365 0.00125 178
1 0.300878 0.13835 0.00229997 0.00598113 -0.00633025 -0.135714 0.00125 179
1 0.0117147 0.111768 0.00140078 0.00967493 -0.0147928 -0.0859316 0.00125 180
1 0.00729355 0.348032 0.00127741 0.0633681 -0.0161511 -0.0519478 0.00125 181
1 0.060448 0.392777 0.00210644 0.00326209 -0.0160952 0.00761341 0.00125 182
1 0.118811 0.204381 0.00146936 0.0150128 -0.00629836 0.128741 0.00125 183
1 0.0893938 0.380604 0.00151407 0.0208192 0.0231626 -0.0954802 0.00125 184
1 0.222256 0.138907 0.00127874 -0.025645 0.0460542 0.174195 0.00125 185
1 0.343942 0.379139 0.00175629 0.0173702 -0.0135743 -0.0623523 0.00125 186
1 0.229405 0.23079 0.00243178 -0.0767597 0.0842417 -0.0834708 0.00125 187
1 0.156322 0.154969 0.00149542 0.0185138 -0.0183265 -0.194658 0.00125 188
1 0.268199 0.15365 0.00134917 -0.0265717 0.00758475 -0.239971 0.00125 189
1 0.383647 0.115282 0.00223955 -0.00375324 0.000452742 -0.0511136 0.00125 190
1 0.293392 0.198405 0.00164475 0.0100724 -0.0102826 0.0933226 0.00125 191
1 0.173814 0.148189 0.00126949 0.00122133 -0.00816914 0.199729 0.00125 192
1 0.329497 0.13481 0.00151566 -0.00548645 -0.00817822 -0.190931 0.00125 193
1 0.144817 0.226586 0.00203795 0.0190193 0.0127834 -0.0245066 0.00125 194
1 0.218831 0.0469869 0.00147059 -0.0114743 -0.00682814 -0.2318 0.00125 195
1 0.123947 0.263477 0.00137928 0.00482616 0.0102933 -0.309183 0.00125 196
1 0.229611 0.0888616 0.00157929 0.0238017 -0.00141772 0.138883 0.00125 197
1 0.292581 0.126305 0.00220287 0.0168678 0.0780807 -0.0590528 0.00125 198
1 0.2515 0.0136767 0.00123544 -0.0981525 0.0133025 0.134499 0.00125 199
1 0.246739 0.38199 0.0016618 0.0126714 -0.00209925 -0.0987165 0.00125 200
1 0.355723 0.033309 0.00213224 -0.0281308 -0.0551667 -0.0190026 0.00125 201
1 0.00576813 0.165401 0.00133713 -0.00459075 -0.0346973 0.181608 0.00125 202
1 0.29398 0.256017 0.00141231 -0.0193501 0.0181848 0.22097 0.00125 203
1 0.283933 0.0770483 0.00126995 -0.0112349 -0.00790749 -0.0783914 0.00125 204
1 0.170021 0.252769 0.00156316 -0.00171482 0.0185526 -0.202283 0.00125 205
1 0.318807 0.115098 0.00237346 -0.0063988 -0.00360875 -0.104337 0.00125 206
1 0.322001 0.38622 0.00123825 -0.0121835 -0.0132631 -0.182025 0.00125 207
1 0.326446 0.105503 0.00123083 -0.00306885 -0.0171474 0.0733069 0.00125 208
1 0.118816 0.18118 0.0012741 0.00765775 0.00861825 -0.236457 0.00125 209
1 0.32208 0.10575 0.00130583 -0.0151557 0.0073071 0.233438 0.00125 210
1 0.136194 0.177353 0.00224424 0.024264 -0.0101174 -0.0472283 0.00125 211
1 0.18642 0.288115 0.00165778 -0.0152783 0.00860803 -0.229475 0.00125 212
1 0.0381664 0.176538 0.00128342 0.00437027 -0.02427 -0.256374 0.00125 213
1 0.177655 0.377583 0.00205458 0.00142776 -0.00746944 0.00312947 0.00125 214
1 0.258915 0.0582116 0.00235905 0.00186194 0.00982289 -0.117843 0.00125 215
1 0.214984 0.0456666 0.00135873 0.0168961 0.00203044 -0.187359 0.00125 216
1 0.190754 0.301614 0.0012663 0.0123316 0.0257254 0.187994 0.00125 217
1 0.27251 0.0978023 0.00160411 0.00795558 0.0131541 0.0980762 0.00125 218
1 0.259127 0.214402 0.00128496 0.00141463 0.0179607 -0.00853149 0.00125 219
1 0.314747 0.132121 0.00142487 0.0031038 0.0106339 0.137381 0.00125 220
1 0.378762 0.109081 0.00143655 0.01308 -0.0148111 0.137849 0.00125 221
1 0.355628 0.00316089 0.00170529 -0.0311955 0.0177464 -0.225819 0.00125 222
1 0.183527 0.318034 0.00152549 -0.00707773 -0.00499136 0.152205 0.00125 223
1 0.068828 0.0186615 0.00130173 0.0220668 0.00267467 0.177352 0.00125 224
1 0.0492508 0.035448 0.0014961 0.00967836 -0.00614451 -0.208512 0.00125 225
1 0.111326 0.375777 0.00133305 0.0113838 0.0237482 0.170737 0.00125 226
1 0.379737 0.0966451 0.00145717 -0.002251 0.0017847 0.207374 0.00125 227
1 0.281491 0.161839 0.00166677 -0.00280873 0.00804663 -0.0911923 0.00125 228
1 0.220697 0.304829 0.00216604 -0.0168642 -0.00789753 -0.162372 0.00125 229
1 0.270414 0.00503324 0.00141258 0.0151656 0.00412714 -0.244774 0.00125 230
1 0.137281 0.139709 0.00130794 0.0357515 -0.0217569 0.178975 0.00125 231
1 0.0505306 0.375292 0.00152116 0.0017574 0.0194345 0.0606393 0.00125 232
1 0.372658 0.384986 0.00142555 -0.0171278 0.0072437 -0.0628125 0.00125 233
1 0.305485 0.345086 0.00236836 -0.00746192 0.0051133 -0.0197675 0.00125 234
1 0.322327 0.0280486 0.00170909 0.00853133 0.0230594 -0.195904 0.00125 235
1 0.0848461 0.345544 0.00141838 -0.0433163 0.0455049 0.155665 0.00125 236
1 0.308614 0.028762 0.00177666 -0.00593248 0.0136262 0.0864311 0.00125 237
1 0.39029 0.367759 0.00133562 0.00878201 0.0257623 0.151117 0.00125 238
1 0.224978 0.198331 0.00203566 0.0158216 -0.00458187 -0.184768 0.00125 239
1 0.0898453 0.196785 0.00123015 -0.0100911 -0.00710294 -0.0196317 0.00125 240
1 0.365966 0.0816326 0.00141977 -0.00769692 0.023247 0.174398 0.00125 241
1 0.324726 0.324976 0.00142843 -0.00426134 -0.00415016 0.218533 0.00125 242
1 0.11336 0.25801 0.00125107 0.0116625 -0.00110151 0.184354 0.00125 243
1 0.14928 0.168782 0.00183743 0.0146732 0.00240283 -0.252834 0.00125 244
1 0.0658084 0.177559 0.00126501 0.0241378 0.0351352 -0.228965 0.00125 245
1 0.333063 0.343628 0.00137003 -0.00394071 -0.00767337 -0.245 0.00125 246
1 0.393102 0.120008 0.00131175 -0.0237552 -0.0213465 -0.228892 0.00125 247
1 0.372807 0.207566 0.00138998 -0.0154148 -0.00705356 0.152454 0.00125 248
1 0.350822 0.0441949 0.00201747 -0.00134422 -6.51703e-05 -0.0640292 0.00125 249
1 0.0976879 0.0487588 0.00177651 0.00529817 -0.00285783 0.161524 0.00125 250
1 0.255206 0.0645054 0.00162099 0.0519598 0.0016421 -0.218941 0.00125 251
1 0.291086 0.0753604 0.00182231 -0.01519 0.0335608 -0.254971 0.00125 252
1 0.243519 0.00796381 0.00138776 -0.0152753 0.00365249 -0.238636 0.00125 253
1 0.346691 0.0321959 0.0013441 0.00783998 0.00501416 0.171367 0.00125 254
1 0.0685901 0.311329 0.00151606 0.00874611 -0.0144575 -0.255203 0.00125 255
1 0.131574 0.392281 0.00133286 0.00893788 -0.0202369 0.262431 0.00125 256
1 0.309001 0.241764 0.0023652 0.00429599 -0.0191712 -0.0250916 0.00125 257
1 0.146057 0.0499842 0.00150108 -0.00384976 0.00532952 -0.0568687 0.00125 258
1 0.357562 0.165382 0.00168743 -0.0189613 0.00666362 0.0997263 0.00125 259
1 0.0247588 0.0188495 0.00126761 -0.0144408 0.00620033 -0.232435 0.00125 260
1 0.391951 0.177825 0.00170607 0.0108695 -0.00689302 -0.0893549 0.00125 261
1 0.0906235 0.193525 0.00130909 -0.0338872 -0.0178 0.149144 0.00125 262
1 0.188658 0.203465 0.00249366 0.0172393 0.00151555 -0.0701956 0.00125 263
1 0.0317726 0.252898 0.00204832 0.0181425 -0.0338986 -0.0594223 0.00125 264
1 0.197813 0.375353 0.00155247 0.00559821 0.000580477 -0.228538 0.00125 265
1 0.0597838 0.240353 0.00129067 -0.00354647 -0.00416778 0.274086 0.00125 266
1 0.220001 0.267791 0.00125775 0.00316081 0.00415207 0.195791 0.00125 267
1 0.139227 0.131479 0.00129091 -0.0101147 0.0321282 -0.222395 0.00125 268
1 0.395584 0.34056 0.00128661 0.00275322 -0.0224967 -0.302772 0.00125 269
1 0.132416 0.0399826 0.00136246 -0.00413477 0.0272429 -0.229374 0.00125 270
1 0.220763 0.133055 0.00154453 0.0302329 -0.0192046 -0.0466634 0.00125 271
1 0.227607 0.142533 0.00123312 -0.0135155 -0.0127463 -0.131495 0.00125 272
1 0.244414 0.314159 0.0022279 -0.00913942 -0.0115594 -0.177353 0.00125 273
1 0.0137992 0.225996 0.00122786 -0.0213019 0.00850484 -0.0631331 0.00125 274
1 0.36213 0.239942 0.00124411 0.0118412 0.0376584 0.215461 0.00125 275
1 0.050334 0.241309 0.00130869 0.000530789 -0.00433114 0.184136 0.00125 276
1 0.211914 0.11687 0.00177316 -0.00690927 -0.0102579 -0.220406 0.00125 277
1 0.189213 0.282978 0.0014039 -0.0340383 0.042992 -0.193545 0.00125 278
1 0.366077 0.301543 0.0016062 0.0188896 -0.01201 -0.182886 0.00125 279
1 0.150687 0.254602 0.0021907 0.0113255 -0.00102971 -0.156232 0.00125 280
1 0.000594522 0.166937 0.00175575 0.0243578 -0.0146667 -0.0862703 0.00125 281
1 0.266162 0.224962 0.00127984 -0.0418708 0.0340263 -0.0500984 0.00125 282
1 0.235339 0.231968 0.00168141 0.00276318 -0.0575988 -0.186407 0.00125 283
1 0.253767 0.228384 0.00127286 0.00241145 0.0125037 0.162394 0.00125 284
1 0.204041 0.11396 0.00238504 0.00921979 -0.0440934 -0.0380911 0.00125 285
1 0.185199 0.176148 0.0022737 0.00390748 -0.00616525 -0.134973 0.00125 286
1 0.206349 0.123917 0.00142798 0.0289218 -0.0161356 0.125456 0.00125 287
1 0.0695046 0.144116 0.00155281 -0.00908385 -0.0196377 0.103528 0.00125 288
1 0.131236 0.289384 0.00138849 0.0168368 -0.00858546 -0.240199 0.00125 289
1 0.140397 0.0878371 0.00205067 0.0166206 0.0411071 -0.0775571 0.00125 290
1 0.0772576 0.314823 0.00178266 0.0183699 -0.00114312 0.134225 0.00125 291
1 0.17342 0.278922 0.00135297 -0.00135072 -0.00830935 0.22853 0.00125 292
1 0.0932223 0.211735 0.00166721 -0.0324096 0.0261539 0.108841 0.00125 293
1 0.375021 0.0427159 0.00153718 0.0242208 -0.0330339 0.0446999 0.00125 294
1 0.318035 0.321966 0.00139124 -0.0226221 0.00136024 0.25138 0.00125 295
1 0.232632 0.209653 0.00142433 0.00669374 -0.00718886 0.149877 0.00125 296
1 0.035523 0.0113158 0.00135238 -0.0366756 0.00217125 -0.205336 0.00125 297
1 0.380861 0.0578846 0.00163911 0.00287406 0.0123423 -0.186697 0.00125 298
1 0.364094 0.3673 0.00133418 -0.0349689 0.0360756 0.0555012 0.00125 299
1 0.137634 0.374516 0.00128314 -0.0108856 0.0109417 -0.293183 0.00125 300
1 0.394483 0.200532 0.00127065 0.00648285 0.0179856 0.240047 0.00125 301
1 0.0706669 0.19975 0.00127518 0.028415 0.0234629 0.188786 0.00125 302
1 0.391745 0.0594495 0.00204909 -0.00986228 -0.0049209 -0.182391 0.00125 303
1 0.120422 0.324236 0.00246633 -0.064811 -0.0481014 -0.0326841 0.00125 304
1 0.183026 0.206459 0.00151884 -0.0145181 0.00512937 -0.247728 0.00125 305
1 0.349234 0.232188 0.00124188 -0.0357586 -0.0158089 -0.215791 0.00125 306
1 0.298562 0.151955 0.00141872 0.0361655 0.0305552 -0.199989 0.00125 307
1 0.0196175 0.32924 0.00198057 0.0310564 0.00512494 -0.187019 0.00125 308
1 0.110606 0.274259 0.00144038 0.00793779 0.0215221 0.221277 0.00125 309
1 0.363554 0.0346316 0.00147178 -0.0239256 0.00915694 0.124364 0.00125 310
1 0.122264 0.329181 0.00129704 -0.00216753 -0.00265144 0.201914 0.00125 311
1 0.00731219 0.206205 0.00124298 0.0167482 0.0168546 -0.270733 0.00125 312
1 0.212009 0.217888 0.00132638 0.0230687 -0.000624245 0.182787 0.00125 313
1 0.202212 0.124984 0.00164417 -0.00360016 -0.0246735 -0.233448 0.00125 314
1 0.0506594 0.310036 0.00151991 -0.0263019 -0.0262097 0.0737578 0.00125 315
1 0.240568 0.00383681 0.0023035 -0.00301965 -0.00970783 -0.137157 0.00125 316
1 0.071318 0.0906608 0.00125371 0.0829466 -0.0439442 -0.149165 0.00125 317
1 0.120835 0.311247 0.00124856 0.0108676 -0.00351415 0.204397 0.00125 318
1 0.0534253 0.0799538 0.00178255 0.00274929 0.00754198 -0.0459109 0.00125 319
1 0.165099 0.343043 0.00247244 0.00940334 0.0153461 -0.0544524 0.00125 320
1 0.0716207 0.00639544 0.00123 -0.0060838 -0.00462715 -0.0323223 0.00125 321
1 0.229416 0.386247 0.00134756 0.0270207 0.00944651 -0.202905 0.00125 322
1 0.253413 0.110817 0.00124678 -0.00746525 0.00659131 -0.255152 0.00125 323
1 0.231929 0.0163264 0.00127288 -0.00398375 -0.032564 0.193896 0.00125 324
1 0.354298 0.117332 0.00146978 0.0144359 -0.017532 0.218477 0.00125 325
1 0.21988 0.283807 0.00128827 -0.00597283 -0.00599372 -0.230802 0.00125 326
1 0.0879559 0.0489135 0.00155106 0.00201051 -0.00929288 -0.237323 0.00125 327
1 0.00511474 0.24026 0.0013134 -0.00284321 -0.0232429 0.197123 0.00125 328
1 0.16132 0.136217 0.00141914 -0.0161696 -0.0164597 -0.204838 0.00125 329
1 0.0537075 0.245966 0.00141556 -0.00365417 0.000736149 -0.290294 0.00125 330
1 0.149279 0.370704 0.00146118 0.0380894 0.00244 -0.194752 0.00125 331
1 0.114684 0.0425035 0.00181915 0.000237112 -0.00645034 -0.0720958 0.00125 332
1 0.239407 0.0762179 0.00183885 -0.027389 0.024374 -0.0437411 0.00125 333
1 0.0854292 0.378208 0.00246226 -0.0129788 -0.0206261 -0.0575109 0.00125 334
1 0.265945 0.0491513 0.00145004 0.0188042 -0.0247639 -0.248491 0.00125 335
1 0.20833 0.333598 0.00131197 0.00651838 -0.0110898 -0.211935 0.00125 336
1 0.0314995 0.152616 0.00159611 0.00777415 0.0150414 -0.237498 0.00125 337
1 0.0324121 0.367107 0.00167014 0.0238715 0.000917656 -0.0879875 0.00125 338
1 0.389408 0.0552401 0.00141523 0.0118248 -0.0132612 -0.239482 0.00125 339
1 0.0544832 0.372559 0.00170891 0.0112549 -0.0103194 -0.221018 0.00125 340
1 0.0989103 0.137506 0.00135653 -0.00743081 -0.0156555 0.257743 0.00125 341
1 0.247569 0.278054 0.00134817 -0.00548684 -0.0188552 0.178431 0.00125 342
1 0.349025 0.243418 0.00142098 0.00135476 -0.00463352 0.218084 0.00125 343
1 0.175534 0.344307 0.0014203 -0.017931 0.0113846 0.22124 0.00125 344
1 0.0268495 0.300123 0.00132676 0.00655478 -0.00504047 -0.235948 0.00125 345
1 0.347621 0.138534 0.0021722 0.027067 -0.0104646 -0.15923 0.00125 346
1 0.0716919 0.167448 0.00123443 -0.0121248 0.00385157 -0.151044 0.00125 347
1 0.13009 0.240075 0.00128545 0.0144662 -0.00389544 -0.231515 0.00125 348
1 0.123992 0.0758604 0.00169263 -0.0174263 -0.00863661 -0.157307 0.00125 349
1 0.368882 0.102016 0.00145557 -0.0110272 0.0171835 0.20374 0.00125 350
1 0.266657 0.193045 0.00159231 -0.0111933 0.00820977 0.0556548 0.00125 351
1 0.0955546 0.0896345 0.00171696 -0.0013892 0.00939915 0.103203 0.00125 352
1 0.227898 0.227602 0.00191334 0.0145617 0.00675432 -0.237584 0.00125 353
1 0.330803 0.105601 0.00201671 0.00987517 -0.0151146 -0.060751 0.00125 354
1 0.21096 0.276463 0.00160553 -0.0263424 0.0312073 -0.248866 0.00125 355
1 0.0291109 0.294646 0.00146982 0.017345 0.000219558 -0.231245 0.00125 356
1 0.283336 0.282573 0.0020196 6.59431e-05 0.00275912 -0.0328782 0.00125 357
1 0.361448 0.33363 0.00123325 -0.00461074 0.00224369 0.126591 0.00125 358
1 0.213192 0.38974 0.00191843 0.0105015 -0.0191358 -0.205438 0.00125 359
1 0.0830232 0.0394138 0.00133359 -0.0131947 0.0195627 0.261777 0.00125 360
1 0.355168 0.213004 0.00129922 0.00470024 -0.019935 0.207178 0.00125 361
1 0.333998 0.376395 0.00151734 -0.00447634 -0.0142908 0.104044 0.00125 362
1 0.395491 0.143222 0.00183954 0.0343467 -0.00890009 -0.190088 0.00125 363
1 0.13708 0.282139 0.00216173 -0.0819489 -0.0412368 -0.0402131 0.00125 364
1 0.180141 0.0766765 0.00130035 -0.00790645 -0.0103984 -0.232312 0.00125 365
1 0.15396 0.0867162 0.00244243 0.010692 -0.0213972 -0.0369086 0.00125 366
1 0.205301 0.0561126 0.00164412 -0.0171065 0.0141089 -0.226601 0.00125 367
1 0.0588017 0.126951 0.00178046 0.000727441 0.00324078 -0.201348 0.00125 368
1 0.387764 0.233309 0.00167597 0.00347401 8.19699e-05 -0.267398 0.00125 369
1 0.223149 0.373081 0.00163788 0.0504088 0.0760022 -0.181746 0.00125 370
1 0.00568828 0.0815882 0.00138726 0.0129066 0.00644684 0.221135 0.00125 371
1 0.0780517 0.0330097 0.00172244 0.0671886 0.0445371 -0.0738832 0.00125 372
1 0.218203 0.299198 0.00158416 0.0107536 0.002757 0.140486 0.00125 373
1 0.0180332 0.181996 0.00152904 0.00729181 0.02196 -0.23158 0.00125 374
1 0.118352 0.154059 0.0017062 -0.00992424 0.0153958 0.102315 0.00125 375
1 0.13462 0.0324098 0.00216437 -0.00355399 -0.0267321 -0.0223074 0.00125 376
1 0.341799 0.0511079 0.00165338 -0.00323586 0.00155817 0.0844671 0.00125 377
1 0.176532 0.219348 0.00131401 0.0410776 -0.00527203 -0.223253 0.00125 378
1 0.180129 0.264141 0.00156211 -0.0072352 -0.00885306 -0.0638973 0.00125 379
1 0.152076 0.0654437 0.0012905 0.0150793 -0.00216174 0.202634 0.00125 380
1 0.0157586 0.335383 0.0021286 0.0154952 0.0106571 -0.0572708 0.00125 381
1 0.252116 0.216066 0.00128076 -0.00433814 0.0109302 -0.23819 0.00125 382
1 0.0875347 0.166423 0.00136639 -0.0124873 -0.00761141 0.224334 0.00125 383
1 0.235005 0.164432 0.00146679 0.00323328 -0.0415208 -0.202087 0.00125 384
1 0.0566062 0.177536 0.00152564 0.00718186 0.0168086 0.109308 0.00125 385
1 0.302391 0.0955673 0.00148768 -0.0178522 0.0154948 -0.239296 0.00125 386
1 0.337869 0.202118 0.00192099 0.0111416 0.00431667 -0.194389 0.00125 387
1 0.214463 0.181909 0.00187139 0.0179423 -0.0343899 -0.198398 0.00125 388
1 0.345608 0.100949 0.00143303 -0.0113716 0.0228703 0.167005 0.00125 389
1 0.315273 0.38683 0.00166445 -0.000478579 0.00788519 0.0574246 0.00125 390
1 0.347808 0.156498 0.00214362 0.0309981 0.0017323 -0.0220291 0.00125 391
1 0.285867 0.329042 0.00144568 0.014359 0.00708956 -0.227881 0.00125 392
1 0.233658 0.393495 0.0021066 -0.00189973 0.00652866 -0.168211 0.00125 393
1 0.244447 0.174941 0.00123657 -0.00200509 -0.00138719 -0.201733 0.00125 394
1 0.0982555 0.0279954 0.00126133 -0.0166017 0.000438257 0.20468 0.00125 395
1 0.209421 0.229301 0.00132752 0.0142469 0.0215965 0.155334 0.00125 396
1 0.000369224 0.0988451 0.00131672 -0.00926378 0.0210631 0.150876 0.00125 397
1 0.093151 0.243335 0.00149329 0.000445811 0.00145625 -0.233023 0.00125 398