ITEM: TIMESTEP
1000000
ITEM: NUMBER OF ATOMS
10000
ITEM: BOX BOUNDS pp pp ff
0.0000000000000000e+00 4.9622699625000005e-01
0.0000000000000000e+00 4.9622699625000005e-01
-1.2500000000000001e-02 1.2500000000000001e-02
ITEM: ATOMS type x y z vx vy vz radius id
1 0.237406 0.240054 0.00239851 -0.0139447 0.000845175 -0.0948711 0.00125 1
1 0.0778614 0.481944 0.00134005 -0.0081533 -0.00875044 -0.10734 0.00125 2
1 0.261469 0.223872 0.00129508 -0.00286632 -0.0116971 -0.223439 0.00125 3
1 0.486954 0.0255729 0.00187902 -0.00768552 -0.00127468 -0.0140872 0.00125 4
1 0.0479503 0.219336 0.00178193 -0.00207994 -0.00246255 -0.218897 0.00125 5
1 0.172221 0.430148 0.00150256 0.00732279 0.0112206 0.116546 0.00125 6
1 0.334521 0.12702 0.00149617 0.000110085 -0.00696027 0.225579 0.00125 7
1 0.495858 0.461967 0.00143425 -0.000647518 -0.0028693 0.235656 0.00125 8
1 0.287034 0.0540612 0.00180869 -0.0120155 0.00394125 -0.0585632 0.00125 9
1 0.2124 0.0210361 0.00123607 -0.00502092 -0.00415476 -0.197511 0.00125 10
1 0.0863793 0.25115 0.00131896 -0.0197072 -0.0121858 -0.234742 0.00125 11
1 0.167667 0.361206 0.00123867 -0.00275335 0.00320275 0.160376 0.00125 12
1 0.0495363 0.251618 0.00241917 0.0193286 0.0240754 0.0278069 0.00125 13
1 0.471401 0.0792226 0.00238691 0.0070967 -0.00974411 -0.101226 0.00125 14
1 0.0995552 0.12826 0.00146769 -0.000391678 0.0069761 0.215099 0.00125 15
1 0.410996 0.193172 0.00173891 -0.00426584 0.00354875 -0.222702 0.00125 16
1 0.00806263 0.401837 0.00131468 0.0112442 0.0136068 -0.190032 0.00125 17
1 0.216913 0.45584 0.00185607 -0.00285665 0.00436775 -0.222215 0.00125 18
1 0.0445801 0.360258 0.00166679 0.00699763 0.00217264 -0.232605 0.00125 19
1 0.415793 0.151353 0.00154922 0.0546715 -0.0427891 -0.127998 0.00125 20
1 0.0933008 0.00533472 0.00126859 -0.00425521 0.0109517 -0.231748 0.00125 21
1 0.0166312 0.0859829 0.00131606 -0.00367988 0.00851532 0.202645 0.00125 22
1 0.251037 0.295869 0.00128098 -0.0130426 -0.020923 0.203126 0.00125 23
1 0.448251 0.0851551 0.00159638 0.00416566 0.000734951 -0.0904187 0.00125 24
1 0.442242 0.164587 0.00219592 -0.00914701 -0.000711352 0.0143765 0.00125 25
1 0.100738 0.34743 0.00152927 -0.0154994 -0.0140051 -0.231475 0.00125 26
1 0.492373 0.486864 0.00140817 -0.0151268 -0.00934895 0.109746 0.00125 27
1 0.191422 0.088217 0.001533 -0.00840139 0.0149278 -0.237714 0.00125 28
1 0.035223 0.0518434 0.0017668 -0.00671011 -0.00657046 0.0844626 0.00125 29
1 0.336391 0.041172 0.00143541 0.000417657 0.00772569 0.125499 0.00125 30
1 0.342276 0.0634955 0.00218671 -0.0121559 -0.00102841 -0.187764 0.00125 31
1 0.176584 0.0608502 0.00167934 -0.0079802 0.0115801 -0.0874301 0.00125 32
1 0.102317 0.485061 0.00209086 0.0172487 -0.0158303 -0.0173621 0.00125 33
1 0.354948 0.266314 0.00197287 -0.00491628 0.0146241 -0.0709593 0.00125 34
1 0.458864 0.297531 0.00144337 -0.0176596 -0.00184148 0.137652 0.00125 35
1 0.0486904 0.391176 0.00151916 -0.0131167 -0.0131715 0.147078 0.00125 36
1 0.408691 0.241334 0.0012845 -0.00837864 0.0060109 -0.285875 0.00125 37
1 0.0174754 0.338081 0.00174216 0.00500252 0.037289 0.113331 0.00125 38
1 0.390764 0.141197 0.00164658 -0.0206365 -0.0244716 -0.227108 0.00125 39
1 0.338679 0.298954 0.00167968 -0.00501235 -0.0095193 -0.0912689 0.00125 40
1 0.390427 0.465103 0.00132083 0.00869032 -0.00594966 0.174054 0.00125 41
1 0.0557217 0.0207111 0.00151897 -0.00139607 -0.0140397 0.23895 0.00125 42
1 0.228959 0.414536 0.00153338 0.00181367 -0.00278374 -0.0987751 0.00125 43
1 0.352193 0.00564864 0.00124901 -0.00411032 0.00808825 0.253476 0.00125 44
1 0.148737 0.0210828 0.0013223 -0.00932191 0.00801359 0.196111 0.00125 45
1 0.124779 0.305058 0.00192456 0.00663561 0.00868724 -0.202714 0.00125 46
1 0.198693 0.0697423 0.00149147 -0.00559689 -0.0028499 -0.198947 0.00125 47
1 0.0470533 0.335985 0.0013757 0.00381534 0.0130602 0.174217 0.00125 48
1 0.221875 0.18491 0.00167506 -0.0339999 -0.0251255 -0.0499402 0.00125 49
1 0.421005 0.284024 0.00141103 0.00726144 0.0281691 0.238842 0.00125 50
1 0.404334 0.0860266 0.00189931 -0.0161106 0.00514688 -0.205048 0.00125 51
1 0.314269 0.194674 0.00128769 0.00263347 0.000799248 0.207119 0.00125 52
1 0.0892065 0.261663 0.00197523 -0.013849 0.00935736 -0.197237 0.00125 53
1 0.270539 0.414851 0.00145679 -0.0114035 -0.00323889 -0.240514 0.00125 54
1 0.131095 0.010671 0.00155016 0.0164992 -0.0298415 0.0980949 0.00125 55
1 0.163844 0.469596 0.00127349 -0.00549674 -0.00837011 -0.220793 0.00125 56
1 0.296503 0.310248 0.00144748 0.0142517 0.0389899 -0.284128 0.00125 57
1 0.259176 0.216556 0.00159349 0.00565265 0.00268999 0.0941741 0.00125 58
1 0.463692 0.274141 0.00132614 -0.0187597 0.000214375 0.173952 0.00125 59
1 0.0722823 0.407314 0.00234764 0.0176868 0.0148937 0.0275648 0.00125 60
1 0.197738 0.137957 0.00132122 0.00408978 -0.0167675 -0.234104 0.00125 61
1 0.219688 0.18919 0.0012304 -0.0113815 0.00112549 0.0364242 0.00125 62
1 0.442308 0.134983 0.00185631 -0.00606937 0.0201131 -0.209706 0.00125 63
1 0.385626 0.22975 0.00232151 0.0041653 0.00268521 -0.00500146 0.00125 64
1 0.197652 0.0894203 0.00247255 -0.0163405 -0.0189114 -0.0164933 0.00125 65
1 0.453651 0.204857 0.00146447 -0.000596485 -0.00257088 0.128159 0.00125 66
1 0.000221517 0.431459 0.00127304 0.0112971 -0.0137484 -0.314929 0.00125 67
1 0.299824 0.3047 0.0013536 0.0043182 -0.000599897 0.246643 0.00125 68
1 0.273 0.412621 0.00170945 0.0206802 -0.0102043 -0.228893 0.00125 69
1 0.348904 0.258734 0.00207678 0.00529944 -0.00927642 -0.211769 0.00125 70
1 0.113798 0.0328051 0.00128722 0.0157378 0.0122923 -0.232775 0.00125 71
1 0.298019 0.385264 0.00179354 0.0072518 0.00681493 -0.228445 0.00125 72
1 0.391608 0.11307 0.00177985 -0.00502552 0.00762418 -0.199115 0.00125 73
1 0.24706 0.209042 0.00126872 0.0151976 0.00529182 0.212908 0.00125 74
1 0.124971 0.0426747 0.0013701 -0.0174665 0.00587982 -0.0969953 0.00125 75
1 0.3628 0.338067 0.00143947 0.000482199 0.0101733 0.102358 0.00125 76
1 0.00339761 0.325543 0.00149961 0.0204009 -0.0111512 0.213653 0.00125 77
1 0.489193 0.46183 0.00139372 -0.0108476 -0.00314071 -0.238336 0.00125 78
1 0.481487 0.488307 0.00132509 -0.00673812 -0.00798265 0.178346 0.00125 79
1 0.230452 0.0571467 0.00125737 -0.00524341 0.0131606 -0.2779 0.00125 80
1 0.0535188 0.396857 0.00124246 0.00172869 0.00418766 0.190891 0.00125 81
1 0.0231361 0.379356 0.00134327 0.00433515 -0.00238107 -0.234055 0.00125 82
1 0.479932 0.344117 0.00204127 0.0133567 0.0164294 -0.193432 0.00125 83
1 0.469776 0.177883 0.0013998 0.00191708 0.0047644 0.24648 0.00125 84
1 0.196585 0.24571 0.00200869 -0.0195404 -0.00287007 -0.0618055 0.00125 85
1 0.445009 0.366234 0.00203363 0.00339603 -0.00626203 -0.026938 0.00125 86
1 0.050437 0.218443 0.00138414 -0.000832641 -0.006246 0.176841 0.00125 87
1 0.0663275 0.484449 0.00150787 0.00593199 -0.00476252 0.116428 0.00125 88
1 0.215513 0.305792 0.001277 -0.00710237 -0.00674277 0.207047 0.00125 89
1 0.0438294 0.0516651 0.0013846 -0.0379774 0.0150039 -0.239152 0.00125 90
1 0.300068 0.377735 0.00143359 0.0225931 0.00604551 -0.237271 0.00125 91
1 0.0180989 0.151445 0.0013561 0.0205601 0.0113464 -0.202826 0.00125 92
1 0.0400756 0.452567 0.00191657 -0.0184977 0.0201099 -0.202791 0.00125 93
1 0.217175 0.0349408 0.00132037 0.0026403 0.00672494 -0.211097 0.00125 94
1 0.16323 0.400044 0.00139046 0.000740567 0.00344504 0.181136 0.00125 95
1 0.423871 0.361752 0.00136991 0.00168996 0.0113096 -0.150572 0.00125 96
1 0.0647695 0.0147569 0.00124356 0.0258248 -0.00538485 0.194163 0.00125 97
1 0.278577 0.475468 0.00123492 -0.00104469 0.0013375 0.145307 0.00125 98
1 0.357221 0.258683 0.00171882 0.00126155 -0.0152309 -0.225007 0.00125 99
1 0.45671 0.440682 0.00149774 -0.000617536 -0.00261524 0.116536 0.00125 100
1 0.152071 0.443052 0.00147527 0.00358116 0.00435469 -0.238035 0.00125 101
1 0.180573 0.202082 0.00200362 0.0145149 -0.00114536 -0.179349 0.00125 102
1 0.160731 0.480213 0.00149182 -0.0109894 0.00772389 0.208042 0.00125 103
1 0.295964 0.0148475 0.00140636 -0.0126064 0.0213258 0.150717 0.00125 104
1 0.464776 0.0175125 0.0013928 -0.0445498 0.022957 -0.241292 0.00125 105
1 0.105329 0.0937772 0.00146129 -0.0081588 0.00172104 -0.243922 0.00125 106
1 0.299032 0.18384 0.0012354 0.00534258 -0.0082467 -0.16267 0.00125 107
1 0.476255 0.104223 0.00177979 0.00242522 0.0100141 -0.0382428 0.00125 108
1 0.485478 0.192897 0.00131726 -0.00520629 -0.013042 0.175827 0.00125 109
1 0.206918 0.13467 0.00134055 -0.0136897 0.0142242 -0.236775 0.00125 110
1 0.477743 0.210447 0.00133135 0.000912387 0.00781606 -0.225646 0.00125 111
1 0.490219 0.141389 0.00126895 -0.0175233 -0.0325846 0.194257 0.00125 112
1 0.0365158 0.465096 0.001281 0.00831902 -0.00417424 -0.186535 0.00125 113
1 0.0894062 0.444892 0.00123264 -0.0146884 0.0164294 0.1824 0.00125 114
1 0.331573 0.115441 0.00148208 -0.0141612 -0.00171995 0.249709 0.00125 115
1 0.394662 0.367959 0.00151461 0.00748691 0.0105048 -0.239229 0.00125 116
1 0.452698 0.308263 0.00151605 -0.0379293 -0.00581137 0.114515 0.00125 117
1 0.469597 0.086337 0.00156182 0.0229168 0.00718024 -0.236167 0.00125 118
1 0.285751 0.133467 0.00146949 -0.00769929 0.0116197 0.2283 0.00125 119
1 0.366045 0.382998 0.0012481 0.0141804 0.0206499 0.200041 0.00125 120
1 0.127447 0.0301536 0.00167084 0.00588052 -0.00452016 0.0932547 0.00125 121
1 0.108098 0.419726 0.00153832 -9.03805e-05 -0.00589236 -0.232377 0.00125 122
1 0.106083 0.236931 0.00150798 -0.0124162 -0.0040895 0.14223 0.00125 123
1 0.0101824 0.328037 0.00206585 0.00305543 -0.00371363 -0.0275737 0.00125 124
1 0.163921 0.392913 0.00133204 -0.00397602 -0.00531893 -0.236786 0.00125 125
1 0.466137 0.241805 0.00132356 0.00580208 0.00755322 0.17182 0.00125 126
1 0.104569 0.318027 0.00134621 0.00862408 0.00026572 -0.237973 0.00125 127
1 0.322319 0.427502 0.00124592 -0.0150181 0.00690182 0.0202932 0.00125 128
1 0.150038 0.0746617 0.00148781 0.00862557 -0.00873576 0.122231 0.00125 129
1 0.00906429 0.383458 0.00141547 0.014913 -0.00193455 0.131868 0.00125 130
1 0.120754 0.0061846 0.00236505 -0.00173324 0.00441623 -0.0485137 0.00125 131
1 0.360382 0.254109 0.00131768 -0.0180583 0.000695504 0.176748 0.00125 132
1 0.44473 0.395219 0.00187806 -0.00345396 0.0124578 -0.145753 0.00125 133
1 0.383492 0.0321164 0.00158343 0.0245571 0.0541274 -0.232841 0.00125 134
1 0.474113 0.27246 0.00145002 0.0225686 -0.00942371 -0.299134 0.00125 135
1 0.34352 0.190081 0.00132233 -0.00965485 0.0105667 -0.235148 0.00125 136
1 0.330223 0.0791336 0.0014079 0.00396179 -0.00994204 0.119868 0.00125 137
1 0.0151103 0.171662 0.00141325 -0.00387014 0.0088066 -0.240028 0.00125 138
1 0.244497 0.246045 0.00132812 0.000951093 -0.0111294 -0.222662 0.00125 139
1 0.131776 0.0463682 0.00148717 0.00516695 -0.00915738 0.20757 0.00125 140
1 0.311561 0.0933207 0.00204103 0.00861004 0.0131597 -0.184038 0.00125 141
1 0.416255 0.383083 0.00148948 -0.00787129 0.0131769 -0.184153 0.00125 142
1 0.0817011 0.0522092 0.00199586 -0.010371 0.0102718 -0.190926 0.00125 143
1 0.209846 0.170909 0.00189994 -0.00220062 0.00439725 -0.204951 0.00125 144
1 0.136221 0.320647 0.00140651 -0.00163298 -0.0263645 -0.229448 0.00125 145
1 0.0840733 0.376956 0.00130355 -0.0122724 -0.0204928 -0.203453 0.00125 146
1 0.285237 0.083754 0.00158073 -0.00706275 0.0184361 0.100886 0.00125 147
1 0.340737 0.050455 0.00138402 -0.00430301 -0.00906105 -0.207148 0.00125 148
1 0.120756 0.181544 0.00125383 -0.00293342 0.00408394 -0.247667 0.00125 149
1 0.163563 0.414937 0.00130812 -0.00491671 0.0281635 -0.247315 0.00125 150
1 0.105406 0.179059 0.00152314 -0.0178585 -0.00627481 0.0613435 0.00125 151
1 0.215433 0.422794 0.00166912 0.00732061 0.0110211 -0.240435 0.00125 152
1 0.117062 0.116698 0.00133561 -0.000993193 -0.0236416 0.192845 0.00125 153
1 0.0650146 0.262413 0.00137489 -0.00490501 -0.0133672 -0.184625 0.00125 154
1 0.166361 0.485743 0.00214587 -0.0160374 -0.0222105 -0.157112 0.00125 155
1 0.445648 0.349442 0.00123021 -0.00842915 -0.00597519 -0.0211533 0.00125 156
1 0.377173 0.270535 0.00131981 -0.0169702 -0.0106215 0.170954 0.00125 157
1 0.110934 0.0432886 0.00207281 0.00564642 -0.00784063 -0.212807 0.00125 158
1 0.42116 0.280082 0.0016464 0.00748093 0.00236694 0.0933083 0.00125 159
1 0.434583 0.430902 0.00195984 0.012686 0.00914066 -0.196629 0.00125 160
1 0.213592 0.181116 0.00148852 -0.0853934 -0.00134493 0.0288944 0.00125 161
1 0.0391608 0.397336 0.00154994 0.00188885 -0.00529401 0.0999513 0.00125 162
1 0.487195 0.297023 0.00149034 -0.011709 0.00733755 -0.238187 0.00125 163
1 0.245267 0.458644 0.00157681 0.006452 0.0101325 0.229061 0.00125 164
1 0.397123 0.0727045 0.00158434 -0.00386018 0.0198289 -0.181966 0.00125 165
1 0.41309 0.41888 0.00124082 -0.00861483 0.00261335 0.195217 0.00125 166
1 0.304812 0.0499654 0.00125256 -0.00952956 0.00879576 0.0279576 0.00125 167
1 0.397338 0.241337 0.00165111 0.00747267 0.0258232 -0.0915738 0.00125 168
1 0.120901 0.374012 0.00200914 0.00683169 -0.0242898 -0.034999 0.00125 169
1 0.151152 0.205689 0.00206629 -0.00319906 -0.00110154 -0.0751308 0.00125 170
1 0.096022 0.156668 0.00222615 0.00654749 -0.0139314 -0.047016 0.00125 171
1 0.0295601 0.217847 0.00187717 -0.00554654 0.00585323 -0.0176609 0.00125 172
1 0.185708 0.379146 0.0019872 -0.0206263 -0.0165476 -0.0723056 0.00125 173
1 0.0285499 0.0571481 0.00144424 0.00822911 -0.0013996 0.218353 0.00125 174
1 0.257877 0.239894 0.00140717 0.0163591 -0.0154606 0.111862 0.00125 175
1 0.00936129 0.159138 0.00182284 -0.00276127 0.0152278 -0.0856965 0.00125 176
1 0.176612 0.353408 0.00123713 -0.00142629 0.00551215 -0.181792 0.00125 177
1 0.457226 0.163493 0.00144439 0.00348624 -0.0067722 0.11818 0.00125 178
1 0.273393 0.342673 0.00196083 -0.00792811 0.00290272 -0.19656 0.00125 179
1 0.0671274 0.191192 0.00233798 0.000472714 -0.00362297 -0.123992 0.00125 180
1 0.380831 0.412724 0.00124884 -0.0161973 -0.0140265 0.197939 0.00125 181
1 0.340734 0.101547 0.00129996 0.00595705 -0.0063476 0.205458 0.00125 182
1 0.0821375 0.339075 0.00123234 -0.00914266 -0.00283912 -0.115816 0.00125 183
1 0.495494 0.18543 0.00165242 -0.0171032 0.00799976 0.0523236 0.00125 184
1 0.0531986 0.0434365 0.00141863 -0.0139875 -0.00709784 -0.232944 0.00125 185
1 0.408647 0.250815 0.0012307 0.00523766 0.0137557 -0.0604024 0.00125 186
1 0.351293 0.123854 0.00196525 -0.0161807 -0.00288006 -0.234968 0.00125 187
1 0.358944 0.125872 0.00122891 0.00585702 0.00529264 0.00884729 0.00125 188
1 0.357058 0.116683 0.0013861 -0.0130569 0.00248501 -0.23892 0.00125 189
1 0.0410926 0.295533 0.00136793 -0.00986709 0.00732948 0.222787 0.00125 190
1 0.149946 0.0369959 0.00141975 0.0470678 0.0113915 -0.191655 0.00125 191
1 0.112383 0.341433 0.00170491 0.0121061 -0.013439 -0.194029 0.00125 192
1 0.0542368 0.159164 0.0016195 0.0305255 -0.00965315 -0.281612 0.00125 193
1 0.0835125 0.457682 0.00229445 -0.00525544 -0.00559521 0.0167708 0.00125 194
1 0.295981 0.133645 0.00154263 0.0114222 0.0096901 0.106097 0.00125 195
1 0.15253 0.232692 0.00143148 0.00805699 0.0189211 -0.104708 0.00125 196
1 0.40391 0.322127 0.00138432 0.0129794 -0.00915178 -0.110695 0.00125 197
1 0.376847 0.198171 0.00201636 0.000342988 0.0270261 -0.0169777 0.00125 198
1 0.375031 0.124024 0.00159117 -0.00488356 -0.00402517 -0.285042 0.00125 199
1 0.0904856 0.391991 0.00150946 0.00437323 0.00772738 -0.237196 0.00125 200
1 0.376102 0.0630612 0.00133584 -0.0069332 0.0285645 -0.307165 0.00125 201
1 0.0057611 0.430547 0.00136963 -0.00791689 0.0036643 -0.200352 0.00125 202
1 0.302237 0.478616 0.00148864 0.025505 -0.0182678 0.131891 0.00125 203
1 0.295274 0.439377 0.00135873 -0.00578836 0.0146986 0.0365892 0.00125 204
1 0.491739 0.210256 0.00123011 0.00215862 -0.000908818 -0.00521434 0.00125 205
1 0.320842 0.39348 0.00128289 0.00130059 0.00123368 0.239577 0.00125 206
1 0.18941 0.00523542 0.00125289 0.00268644 -0.00525218 -0.238666 0.00125 207
1 0.267946 0.0611391 0.00123039 -0.0072317 0.000921332 0.0321668 0.00125 208
1 0.221517 0.433007 0.00136156 -0.0122266 0.0144117 -0.112395 0.00125 209
1 0.317367 0.462884 0.00150831 -0.0102215 0.0236047 -0.232998 0.00125 210
1 0.491905 0.307458 0.00140807 -0.000354403 0.000445732 0.118438 0.00125 211
1 0.116966 0.15098 0.0015567 0.00915029 0.00838532 0.149807 0.00125 212
1 0.110791 0.157838 0.00132001 -0.00743692 0.00862752 0.196189 0.00125 213
1 0.308046 0.427787 0.00125517 0.000966455 -0.00729935 -0.230556 0.00125 214
1 0.438885 0.170827 0.00127938 0.00192589 0.0131521 0.205541 0.00125 215
1 0.215951 0.167913 0.00143634 0.00591467 -0.00365248 0.166206 0.00125 216
1 0.463398 0.373727 0.00173866 0.0119839 -0.0263401 -0.0411959 0.00125 217
1 0.304718 0.0883001 0.00129866 0.0104682 -0.0255922 -0.176681 0.00125 218
1 0.255859 0.0183402 0.00127074 -0.00638224 0.00161026 0.175228 0.00125 219
1 0.418169 0.0327482 0.00205816 -0.0126364 0.0047969 -0.183702 0.00125 220
1 0.197347 0.010204 0.00202724 -0.00383819 -0.029679 -0.194392 0.00125 221
1 0.343953 0.0925842 0.00157254 0.00306282 -0.0063318 -0.0607155 0.00125 222
1 0.43414 0.20344 0.00138699 -0.0105041 0.024386 -0.229092 0.00125 223
1 0.318815 0.126742 0.00142996 0.001404 -0.0152013 -0.239152 0.00125 224
1 0.326321 0.3909 0.00158894 0.0156997 0.0126903 0.105227 0.00125 225
1 0.295304 0.0641987 0.00157538 -0.00995664 0.000788524 -0.183049 0.00125 226
1 0.234664 0.425116 0.00154892 -0.00414623 0.031309 0.112226 0.00125 227
1 0.070706 0.313057 0.00154292 -0.014421 -0.00398952 -0.236909 0.00125 228
1 0.0629395 0.0103059 0.00125267 0.0189191 0.00735236 0.22086 0.00125 229
1 0.47531 0.203662 0.00142395 -0.00805973 -0.00326108 -0.238055 0.00125 230
1 0.123613 0.276127 0.00200093 0.0185546 -0.00689682 -0.0780258 0.00125 231
1 0.28317 0.296988 0.00149399 -0.0130417 -0.0140007 -0.231922 0.00125 232
1 0.319738 0.301442 0.00216109 0.012711 0.00498761 -0.0572595 0.00125 233
1 0.0337583 0.340493 0.00144411 0.00860764 -0.0206523 0.0953342 0.00125 234
1 0.187775 0.472722 0.00139494 0.0186801 -0.0157983 0.150423 0.00125 235
1 0.0354176 0.015819 0.00228861 -0.00620718 0.0081841 -0.132084 0.00125 236
1 0.0304868 0.181004 0.00123222 0.00201001 -0.00514517 -0.112319 0.00125 237
1 0.486897 0.376804 0.00134632 -0.004776 0.0158262 0.188415 0.00125 238
1 0.316437 0.41178 0.00183859 -0.0150683 -0.00887421 -0.210571 0.00125 239
1 0.00531214 0.490489 0.00137382 0.0122768 0.00802401 -0.201765 0.00125 240
1 0.471313 0.241889 0.00132671 -0.00685978 0.0171476 -0.225671 0.00125 241
1 0.299579 0.392451 0.00197087 -0.010195 -0.0159663 -0.081944 0.00125 242
1 0.0903809 0.0690389 0.00153776 -0.00292749 -0.031222 0.0572155 0.00125 243
1 0.200775 0.208595 0.00143172 -0.00290686 -0.00646916 -0.300827 0.00125 244
1 0.154078 0.429134 0.00147841 0.00477376 -0.0138746 0.0791536 0.00125 245
1 0.0827815 0.227646 0.00139552 0.0214374 0.0096801 0.221076 0.00125 246
1 0.278733 0.302028 0.00138296 -0.00310742 -0.00929467 0.224255 0.00125 247
1 0.356763 0.197943 0.00124239 0.00890383 -0.0111024 0.191355 0.00125 248
1 0.313111 0.231005 0.0023872 -0.00756756 0.00368129 -0.0417482 0.00125 249
1 0.339294 0.198344 0.00145361 0.00823755 -0.0169015 0.131777 0.00125 250
1 0.461141 0.362211 0.00137137 -0.000360033 0.00863097 0.230156 0.00125 251
1 0.332831 0.00473333 0.00131589 0.0112171 -0.0150575 0.177971 0.00125 252
1 0.447859 0.446245 0.00190801 0.00067474 -0.00852866 -0.0650644 0.00125 253
1 0.206905 0.330278 0.00140316 -0.000957972 -0.0107806 -0.23662 0.00125 254
1 0.101938 0.0781999 0.00249758 -0.0102492 -0.0180771 0.0374213 0.00125 255
1 0.435943 0.0697503 0.00131469 0.00519242 -0.00159473 -0.235035 0.00125 256
1 0.486131 0.385562 0.0014315 0.000299132 -0.00320051 0.0943673 0.00125 257
1 0.446369 0.422135 0.00137346 0.0050436 0.00586976 0.181769 0.00125 258
1 0.14448 0.169287 0.001613 -0.0190444 -0.0248958 -0.0589077 0.00125 259
1 0.384558 0.290679 0.00156059 0.00154217 0.0043675 -0.237054 0.00125 260
1 0.29297 0.465894 0.00241169 0.0106527 -0.00743577 -0.0399957 0.00125 261
1 0.0808821 0.439096 0.00137502 -0.0139596 -0.0101787 -0.226443 0.00125 262
1 0.243066 0.226665 0.00163507 0.0073742 -0.000149836 0.0930793 0.00125 263
1 0.482136 0.234378 0.00238728 -0.00728263 -0.0136085 -0.0478951 0.00125 264
1 0.485084 0.122788 0.00128871 0.000591176 0.00326149 0.204225 0.00125 265
1 0.0488458 0.265628 0.00145071 0.0333931 -0.0121066 0.16033 0.00125 266
1 0.439444 0.31778 0.00148927 -0.000798575 0.0220571 -0.194335 0.00125 267
1 0.0371996 0.303859 0.00137047 -1.9716e-05 -0.00309315 -0.235987 0.00125 268
1 0.323878 0.0877637 0.00124613 0.00158342 -0.00331955 -0.244656 0.00125 269
1 0.301841 0.455014 0.00142226 -0.016289 -0.0159325 -0.0785943 0.00125 270
1 0.408164 0.0356773 0.00161436 0.00297383 -0.00596193 -0.17553 0.00125 271
1 0.350155 0.239589 0.00161299 -0.000901002 0.0192452 -0.226565 0.00125 272
1 0.264117 0.395078 0.00208985 -0.014708 -0.00166337 -0.0617063 0.00125 273
1 0.0226807 0.15917 0.00135427 0.00829686 -0.00902713 -0.203359 0.00125 274
1 0.14063 0.10033 0.00124071 -0.00161669 0.002285 0.235871 0.00125 275
1 0.130208 0.406106 0.00131036 0.01302 -0.0140952 0.1896 0.00125 276
1 0.362634 0.0122554 0.00123931 0.00197056 -0.00156044 0.179161 0.00125 277
1 0.211721 0.0451108 0.00132059 -0.00736688 0.0101091 -0.235112 0.00125 278
1 0.434876 0.185124 0.00170988 0.00864584 0.00514637 -0.220811 0.00125 279
1 0.318306 0.161008 0.0012577 0.0323826 -0.0177101 -0.20004 0.00125 280
1 0.0763537 0.116462 0.0012862 -0.0274989 0.0167377 -0.23827 0.00125 281
1 0.260362 0.238001 0.00127178 0.0151131 0.00817193 0.213417 0.00125 282
1 0.376885 0.453113 0.00196978 -0.000205118 0.00828874 -0.0039545 0.00125 283
1 0.282226 0.145436 0.00140106 -0.00831211 0.00374073 -0.149303 0.00125 284
1 0.336544 0.456308 0.00139264 0.0350723 -0.0359574 -0.198952 0.00125 285
1 0.0958522 0.137286 0.00184993 -0.00400018 0.00276256 -0.211362 0.00125 286
1 0.30818 0.0155087 0.00140584 -0.00614822 -0.0220302 0.215669 0.00125 287
1 0.0886021 0.269542 0.00182131 -0.00779027 0.00297812 -0.0764371 0.00125 288
1 0.156761 0.44989 0.00243529 0.0177874 -0.0161852 -0.0465617 0.00125 289
1 0.064831 0.329405 0.00141727 0.00977453 0.00631924 -0.225837 0.00125 290
1 0.488284 0.339813 0.00128388 0.00336987 -0.00423437 -0.260418 0.00125 291
1 0.344559 0.432769 0.00145615 -0.00198933 -0.0357531 -0.233666 0.00125 292
1 0.389908 0.273402 0.00126031 -0.0167957 -0.00420185 -0.279564 0.00125 293
1 0.280531 0.470756 0.00174168 -0.00256687 0.0253776 -0.222672 0.00125 294
1 0.250609 0.361705 0.00123049 0.000125738 -0.00913219 -0.0529064 0.00125 295
1 0.43524 0.0488078 0.00136811 0.000756761 -0.00266558 0.183699 0.00125 296
1 0.315537 0.121758 0.00143255 -0.00931173 -0.0106528 0.142309 0.00125 297
1 0.103895 0.307461 0.00182342 -0.00328422 0.0303367 -0.0903319 0.00125 298
1 0.278521 0.282358 0.00172273 -0.00174615 0.00389829 0.0656397 0.00125 299
1 0.133659 0.0102805 0.00165909 -0.00603719 -0.0168402 -0.229549 0.00125 300
1 0.307409 0.164387 0.00186499 -0.00404387 -0.0156057 -0.0740559 0.00125 301
1 0.452661 0.149116 0.00157826 0.00871828 -0.00376141 0.0569276 0.00125 302
1 0.0556586 0.304371 0.001691 0.00453468 0.00328669 -0.227373 0.00125 303
1 0.2819 0.154146 0.00139328 0.00897673 0.00957777 0.220576 0.00125 304
1 0.187113 0.324397 0.00125835 0.0203905 0.00213748 0.195442 0.00125 305
1 0.000990478 0.082487 0.0016711 -0.00830738 -0.00646691 -0.0870379 0.00125 306
1 0.0158557 0.300313 0.00176505 -0.0114715 0.0207054 -0.220654 0.00125 307
1 0.194306 0.367573 0.00159048 0.00159776 0.00676509 -0.178724 0.00125 308
1 0.0349616 0.0583833 0.00225543 -0.00751816 -0.00610009 -0.146944 0.00125 309
1 0.131576 0.217041 0.0012413 0.0094583 0.00670704 -0.261725 0.00125 310
1 0.131604 0.336048 0.00149224 -0.0141872 -0.0106884 -0.233087 0.00125 311
1 0.0328823 0.0393324 0.00128874 -0.0047483 -0.0242986 0.199303 0.00125 312
1 0.381838 0.357004 0.00196007 -0.00211715 0.0126902 -0.0679476 0.00125 313
1 0.221845 0.469846 0.00164008 -0.00414126 -0.00711519 -0.224285 0.00125 314
1 0.143192 0.106561 0.00135084 0.00626286 0.0150532 -0.223409 0.00125 315
1 0.225725 0.19527 0.00139767 -0.0140411 -0.010436 0.173607 0.00125 316
1 0.396328 0.418526 0.00124776 0.0297263 0.0116774 -0.22836 0.00125 317
1 0.0172339 0.109798 0.00128714 -0.00251176 0.00735367 -0.00592479 0.00125 318
1 0.0576247 0.145796 0.00207201 -0.0441243 -0.000627877 -0.212938 0.00125 319
1 0.288426 0.000187439 0.00215189 0.00469748 0.0175285 -0.161346 0.00125 320
1 0.344218 0.137965 0.00175342 -0.0105362 0.00217695 -0.217894 0.00125 321
1 0.064606 0.265927 0.0024038 -0.00373642 0.0159888 -0.0938194 0.00125 322
1 0.0556593 0.374618 0.00124661 -0.00373327 0.00480843 -0.150972 0.00125 323
1 0.305784 0.489841 0.00148171 0.000709138 0.00489366 0.0780836 0.00125 324
1 0.376153 0.186996 0.00137804 0.0203959 -0.00721682 -0.217907 0.00125 325
1 0.220001 0.353434 0.00148396 -0.018909 0.00447247 0.120711 0.00125 326
1 0.338565 0.429692 0.00123247 -0.0095213 0.0222199 0.137 0.00125 327
1 0.229276 0.273609 0.00139369 -0.0034789 0.00738113 -0.242664 0.00125 328
1 0.251474 0.254031 0.00162877 -0.00535176 0.000335095 -0.0851984 0.00125 329
1 0.174036 0.35321 0.00140766 -0.00188885 -0.00153676 0.244804 0.00125 330
1 0.180493 0.461894 0.00145163 0.0128142 0.00030582 0.148315 0.00125 331
1 0.407251 0.0679135 0.00151894 0.0204376 -0.000804544 -0.238014 0.00125 332
1 0.12415 0.174246 0.00199562 -0.0296671 -0.014313 -0.0257855 0.00125 333
1 0.278227 0.481509 0.00246443 0.00793585 0.000476198 -0.0370256 0.00125 334
1 0.398838 0.0346084 0.00203654 0.00911238 0.00640382 -0.208564 0.00125 335
1 0.42464 0.389499 0.00236365 -0.00854245 -0.00962349 -0.107934 0.00125 336
1 0.355709 0.347591 0.00137478 0.0135163 0.0199318 -0.240283 0.00125 337
1 0.292625 0.0268633 0.00155686 -0.003084 -0.00245863 0.104219 0.00125 338
1 0.423792 0.353632 0.00132748 0.0240846 -0.00419665 -0.236091 0.00125 339
1 0.0129369 0.0818827 0.00130343 0.00197967 -0.00630381 -0.233798 0.00125 340
1 0.459499 0.322453 0.00178418 -0.0153882 -0.00100547 0.0927542 0.00125 341
1 0.450437 0.144854 0.00140927 0.00451806 0.00752813 -0.239401 0.00125 342
1 0.386545 0.466103 0.00178118 0.0185885 -0.0157564 -0.215309 0.00125 343
1 0.244178 0.0776116 0.00138628 -0.0178833 -0.00678886 -0.239201 0.00125 344
1 0.242389 0.258747 0.00151576 0.0149105 0.0120627 -0.23206 0.00125 345
1 0.0128131 0.250748 0.00127488 0.0103338 0.00016689 0.181077 0.00125 346
1 0.0105817 0.437902 0.00154973 0.0081624 -0.0240232 -0.190087 0.00125 347
1 0.0676426 0.132676 0.00163265 -0.00985913 -0.00646569 0.0575373 0.00125 348
1 0.313903 0.0561369 0.00128471 0.00269897 -0.000408939 0.072687 0.00125 349
1 0.0618951 0.362351 0.0013662 0.00296884 0.0102492 -0.268803 0.00125 350
1 0.0895456 0.160547 0.00158768 -0.0199227 -0.01319 0.224875 0.00125 351
1 0.0278018 0.239861 0.00140604 -0.000275533 -0.0266669 0.156028 0.00125 352
1 0.0224836 0.369262 0.00172391 -0.0110228 -0.00567205 -0.0835774 0.00125 353
1 0.0170119 0.0746831 0.00144718 0.00547813 -0.0163937 0.132679 0.00125 354
1 0.232062 0.104793 0.00145813 0.00625814 0.00737238 0.2246 0.00125 355
1 0.110218 0.30507 0.00137448 0.00291259 0.0126269 0.184186 0.00125 356
1 0.418442 0.0546268 0.00135586 0.0147488 -0.00357085 -0.220416 0.00125 357
1 0.0126165 0.357415 0.00155537 0.0313917 -0.0159087 0.0799059 0.00125 358
1 0.0359467 0.245079 0.00148537 0.00522798 0.00650897 0.13631 0.00125 359
1 0.303216 0.192358 0.00227449 -0.00929325 0.00249178 -0.0473791 0.00125 360
1 0.356374 0.38533 0.00184048 0.00544137 0.0107362 -0.0326032 0.00125 361
1 0.110805 0.0963729 0.0014056 0.0271285 0.0324029 -0.230024 0.00125 362
1 0.329376 0.308931 0.00162189 0.00648254 0.00187205 0.218379 0.00125 363
1 0.00329924 0.101612 0.00127451 -0.00114589 -0.0199945 -0.0523052 0.00125 364
1 0.287827 0.301347 0.00126846 0.000196829 -0.0134868 -0.253929 0.00125 365
1 0.337251 0.189028 0.00132158 0.0211079 -0.0120334 0.176706 0.00125 366
1 0.366942 0.0470424 0.00175321 0.00165509 -0.00647598 -0.218026 0.00125 367
1 0.287313 0.317421 0.00200507 0.00278533 -0.00196666 -0.0672769 0.00125 368
1 0.412242 0.480302 0.00248064 -0.00654718 0.012606 -0.0821079 0.00125 369
1 0.149789 0.217404 0.00138541 -0.00147279 0.00413765 -0.10365 0.00125 370
1 0.118802 0.244405 0.00149238 -0.0187515 0.00717682 0.133441 0.00125 371
1 0.114998 0.166181 0.00151646 -0.00185359 0.00235965 -0.267153 0.00125 372
1 0.301287 0.137658 0.00162644 -0.02012 0.0153257 -0.170847 0.00125 373
1 0.00694998 0.0143686 0.00154679 0.000946535 -0.012051 -0.181424 0.00125 374
1 0.318239 0.0117453 0.00219472 0.014642 -0.0162721 -0.186405 0.00125 375
1 0.179118 0.332442 0.00136907 0.0135594 0.0058271 -0.232264 0.00125 376
1 0.133618 0.219719 0.00133804 0.00790899 -0.00887307 -0.221795 0.00125 377
1 0.322469 0.204872 0.001416 0.0408706 -0.0749456 -0.235015 0.00125 378
1 0.0388766 0.0321177 0.0013131 0.011851 0.0214243 -0.247148 0.00125 379
1 0.0295945 0.455343 0.00146268 0.0126384 0.0119874 -0.196925 0.00125 380
1 0.0409763 0.0701176 0.00152982 0.00501519 0.013023 -0.232601 0.00125 381
1 0.151964 0.426555 0.00146751 -0.00780132 -0.00217921 0.126263 0.00125 382
1 0.0636063 0.0552678 0.00161209 0.00826106 0.0100674 0.1433 0.00125 383
1 0.368963 0.453217 0.0013883 -0.0255171 0.0182212 0.130595 0.00125 384
1 0.177904 0.430782 0.00128592 0.00398745 0.0261515 -0.208588 0.00125 385
1 0.327576 0.14389 0.00168307 0.0203208 -0.000722401 -0.0856961 0.00125 386
1 0.304982 0.328113 0.00219839 -0.00568275 0.0099733 -0.0566117 0.00125 387
1 0.141877 0.0120029 0.00158088 -0.00871352 -0.0123721 0.0962178 0.00125 388
1 0.169543 0.289969 0.00155897 -0.00293908 0.0120864 -0.105014 0.00125 389
1 0.374225 0.0261357 0.00126521 0.0115387 0.00990201 0.274248 0.00125 390
1 0.271354 0.179089 0.00235069 -0.0136005 0.0238815 -0.0399113 0.00125 391
1 0.442502 0.491749 0.00161806 0.0324335 0.0191595 -0.0919401 0.00125 392
1 0.0460802 0.164619 0.00216625 -0.0231447 -2.84828e-05 -0.0525757 0.00125 393
1 0.228727 0.461102 0.00157693 -0.00114732 -0.0538694 -0.129994 0.00125 394
1 0.105097 0.456521 0.00131256 -0.0195874 0.000227514 0.149871 0.00125 395
1 0.332823 0.392704 0.00165664 -0.00575676 -0.00895097 -0.230806 0.00125 396
1 0.0736738 0.014685 0.001407 -0.0062176 0.00565041 -0.22454 0.00125 397