ITEM: TIMESTEP
1000000
ITEM: NUMBER OF ATOMS
10000
ITEM: BOX BOUNDS pp pp ff
0.0000000000000000e+00 3.4170596250000002e-01
0.0000000000000000e+00 3.4170596250000002e-01
-1.2500000000000001e-02 1.2500000000000001e-02
ITEM: ATOMS type x y z vx vy vz radius id
1 0.277254 0.0922304 0.0021919 0.00730944 0.0550458 -0.0354746 0.00125 1
1 0.0342843 0.0492841 0.0020016 0.0157173 0.0329725 -0.0862581 0.00125 2
1 0.168274 0.311256 0.00152546 -0.0725508 -0.0519555 -0.0776454 0.00125 3
1 0.327072 0.154994 0.00144772 -0.00268278 -0.0107517 -0.22898 0.00125 4
1 0.0825073 0.0148794 0.00143455 -0.0123125 0.0259321 0.226861 0.00125 5
1 0.313846 0.045544 0.00123067 0.00444394 -0.0268712 -0.0493374 0.00125 6
1 0.340906 0.16209 0.00131015 -0.0210867 -0.00432349 0.254385 0.00125 7
1 0.0864881 0.0237376 0.00145651 -0.00324132 0.0128858 0.131071 0.00125 8
1 0.161599 0.187048 0.00213571 -0.0014584 0.0393393 -0.1853 0.00125 9
1 0.184979 0.223306 0.00168344 -0.0124857 0.0166264 -0.2459 0.00125 10
1 0.31837 0.179017 0.00170114 -0.0223273 -0.00533787 -0.0611972 0.00125 11
1 0.274133 0.187734 0.00128427 0.0481648 0.0314661 -0.126596 0.00125 12
1 0.319736 0.124539 0.00164485 0.0125418 0.0647298 0.0513248 0.00125 13
1 0.0799415 0.317826 0.00144908 -0.0100978 0.0128201 0.180928 0.00125 14
1 0.00560075 0.0927919 0.00153982 -0.0394225 -0.00674352 -0.235417 0.00125 15
1 0.310333 0.300329 0.00134396 -0.0176967 -0.00334172 -0.236463 0.00125 16
1 0.101542 0.00174234 0.00146583 0.0056429 0.00617141 0.152866 0.00125 17
1 0.264697 0.338081 0.00205042 -0.019719 -0.0187456 -0.0279195 0.00125 18
1 0.20823 0.113689 0.00129545 -0.0114711 -0.0179454 0.189639 0.00125 19
1 0.225786 0.335989 0.00127007 -0.0452077 -0.00687406 -0.238722 0.00125 20
1 0.314238 0.269912 0.00225837 0.00522914 0.0281545 -0.0266643 0.00125 21
1 0.0913873 0.18456 0.00163469 -0.0537745 0.0700864 -0.161475 0.00125 22
1 0.298568 0.0878086 0.00173167 0.0241964 0.0423881 -0.107397 0.00125 23
1 0.306653 0.14621 0.00159795 0.0392811 -0.00292225 -0.121461 0.00125 24
1 0.127024 0.154499 0.00161588 0.0157136 -0.0133152 0.128225 0.00125 25
1 0.209031 0.0533042 0.00223159 -0.0101394 0.0166892 -0.048876 0.00125 26
1 0.11436 0.197762 0.0013969 -0.043893 -0.0252826 -0.108697 0.00125 27
1 0.26583 0.161613 0.0021256 0.0124723 0.0487922 -0.0378713 0.00125 28
1 0.279853 0.256063 0.00245181 -0.0145141 0.0220807 -0.0456244 0.00125 29
1 0.289583 0.156179 0.00150895 -0.0157739 0.0132594 0.139332 0.00125 30
1 0.340316 0.318587 0.00230185 0.0261652 0.0250536 -0.133347 0.00125 31
1 0.0181643 0.306087 0.00232286 0.0172876 0.0170432 -0.122116 0.00125 32
1 0.287638 0.0578065 0.00164382 0.0547053 -0.0170952 0.0917434 0.00125 33
1 0.163977 0.316788 0.00148547 -0.00187878 0.0146964 0.229471 0.00125 34
1 0.0765223 0.321464 0.00137106 0.0241155 0.00388323 0.174004 0.00125 35
1 0.0901036 0.195772 0.00127471 -0.0187232 -0.00715245 0.272107 0.00125 36
1 0.07402 0.321475 0.00220932 0.0212751 0.00164079 -0.0411345 0.00125 37
1 0.305125 0.302111 0.00148136 -0.0771177 0.0366381 0.0422146 0.00125 38
1 0.279583 0.0944942 0.00152915 -0.0628377 -0.065526 -0.252791 0.00125 39
1 0.0497089 0.268781 0.00161823 -0.0421639 0.0493596 -0.208136 0.00125 40
1 0.338757 0.153254 0.00124474 0.0169001 -0.0339032 -0.203193 0.00125 41
1 0.193743 0.0731042 0.00209339 0.00256295 -0.0341433 -0.0246233 0.00125 42
1 0.0250696 0.029915 0.0014106 -0.0163394 -0.0032307 -0.223675 0.00125 43
1 0.0622915 0.116267 0.00149435 0.02299 -0.0242818 -0.217423 0.00125 44
1 0.118575 0.14248 0.00128221 0.00185315 -0.00266179 -0.200623 0.00125 45
1 0.237568 0.178259 0.00161395 0.0296233 -0.00805621 0.0898778 0.00125 46
1 0.171747 0.0905953 0.0014332 -0.0396271 0.0158631 -0.23226 0.00125 47
1 0.00155028 0.209234 0.00149884 0.0260848 0.00504085 0.235905 0.00125 48
1 0.315255 0.178547 0.0021151 -0.0312801 0.0246032 -0.0486028 0.00125 49
1 0.0124157 0.0154658 0.00136523 0.0371388 -0.000574418 -0.217266 0.00125 50
1 0.207068 0.17895 0.0016059 -0.0233147 0.0463599 -0.229184 0.00125 51
1 0.290063 0.216121 0.00127637 0.0295484 0.0691968 -0.00463935 0.00125 52
1 0.0805642 0.00391995 0.00137672 -0.00586782 0.00231702 0.12296 0.00125 53
1 0.129022 0.039811 0.00169143 0.0490088 0.017155 -0.172531 0.00125 54
1 0.268146 0.293065 0.00180923 -0.0136637 0.0847421 -0.072296 0.00125 55
1 0.277178 0.0582671 0.00233869 -0.0180199 0.0024318 -0.116361 0.00125 56
1 0.132059 0.240995 0.00132892 -0.000954765 -0.0111706 -0.188899 0.00125 57
1 0.120112 0.0193705 0.0016009 -0.0243494 0.0420596 -0.235141 0.00125 58
1 0.246165 0.26607 0.00245395 -0.00198263 0.00802655 -0.0680373 0.00125 59
1 0.12066 0.0462995 0.00133331 -0.0142477 0.0273233 -0.233478 0.00125 60
1 0.0185312 0.155367 0.00197332 0.00178481 0.00654049 -0.194665 0.00125 61
1 0.152187 0.0178072 0.00145023 0.0278152 -0.0155308 -0.22284 0.00125 62
1 0.0201889 0.314931 0.00144912 -0.0230045 0.0105268 0.218149 0.00125 63
1 0.154859 0.264023 0.00162155 -0.00818127 0.0175435 -0.253847 0.00125 64
1 0.0045502 0.153157 0.00209881 -0.016612 -0.016635 -0.182961 0.00125 65
1 0.0255337 0.282792 0.00164446 0.00857742 -0.052203 -0.11918 0.00125 66
1 0.160995 0.284339 0.00138253 -0.0147281 0.0357405 0.220725 0.00125 67
1 0.199116 0.200832 0.00134712 -0.0180645 0.00870369 -0.235306 0.00125 68
1 0.252095 0.163586 0.00139399 0.0328345 -0.0152453 0.200068 0.00125 69
1 0.0867726 0.0646262 0.00150342 0.0167828 -0.0285078 0.0160861 0.00125 70
1 0.168441 0.251326 0.00179789 -0.00119252 0.0178502 -0.223012 0.00125 71
1 0.0727791 0.0981822 0.00146168 -0.00317436 0.0243577 -0.200164 0.00125 72
1 0.0055981 0.324958 0.00131205 -0.0258328 0.0478738 -0.165383 0.00125 73
1 0.194133 0.113258 0.00171512 0.000807989 -0.00835612 -0.224797 0.00125 74
1 0.145622 0.111722 0.00193051 0.0243165 -0.0223874 -0.151573 0.00125 75
1 0.126616 0.099975 0.00188741 0.0199582 -0.0462719 -0.188933 0.00125 76
1 0.251389 0.123967 0.00122877 -0.0118936 -0.00454724 0.0517414 0.00125 77
1 0.330556 0.072257 0.00123198 0.0214056 -0.00467489 0.00750381 0.00125 78
1 0.129756 0.0961218 0.0014445 0.0289629 0.041419 -0.247806 0.00125 79
1 0.169141 0.0344029 0.00144337 0.0255025 -0.00860218 0.221376 0.00125 80
1 0.00179598 0.313609 0.00175801 0.0160717 0.0396577 -0.149257 0.00125 81
1 0.0735103 0.0654874 0.00140978 -0.013857 0.0215668 -0.216713 0.00125 82
1 0.185593 0.259506 0.00164545 0.0898742 -0.070091 -0.256675 0.00125 83
1 0.207212 0.143122 0.00142554 -0.044621 0.00669455 0.126066 0.00125 84
1 0.140724 0.174825 0.0013961 -0.00497128 0.0022923 0.178363 0.00125 85
1 0.0657601 0.151703 0.00212682 -0.0193828 -0.00331715 -0.0620892 0.00125 86
1 0.239602 0.292922 0.0013673 -0.000203812 -0.00861233 0.206651 0.00125 87
1 0.0379928 0.0863993 0.00159055 0.0194018 -0.06208 -0.085994 0.00125 88
1 0.167555 0.164234 0.00222448 0.00224486 -0.00234727 -0.0118365 0.00125 89
1 0.14565 0.135845 0.00146375 0.0333104 0.027258 -0.137271 0.00125 90
1 0.157497 0.0374049 0.00170665 0.00555062 0.0099685 -0.219759 0.00125 91
1 0.0242634 0.227934 0.00147184 -0.0100652 -0.0216296 0.111321 0.00125 92
1 0.0604215 0.287569 0.00244493 0.0129186 -0.00752985 -0.0363462 0.00125 93
1 0.301087 0.10311 0.00237855 0.00767071 -0.0465529 -0.0550698 0.00125 94
1 0.11966 0.0521137 0.00129258 0.0141682 -0.0626098 -0.204848 0.00125 95
1 0.00671918 0.247665 0.00133859 0.0111547 0.00956737 0.172907 0.00125 96
1 0.282059 0.102277 0.00165735 -0.0058294 -0.0337796 0.0969591 0.00125 97
1 0.0825819 0.125975 0.00151392 0.00305726 0.00899163 0.214262 0.00125 98
1 0.15981 0.147011 0.00128035 -0.014652 -0.00308424 -0.11061 0.00125 99
1 0.168392 0.0145454 0.00143565 0.000852849 0.0419204 0.227601 0.00125 100
1 0.234212 0.15904 0.00137432 0.00689318 -0.00240974 -0.232355 0.00125 101
1 0.0582237 0.0273871 0.00232896 0.0195787 0.0305177 -0.0408175 0.00125 102
1 0.0959151 0.304203 0.0013854 -0.024906 0.00188671 0.154766 0.00125 103
1 0.292424 0.0874114 0.00128725 0.0209571 0.0270836 0.213487 0.00125 104
1 0.190356 0.150251 0.00146136 -0.0621267 -0.0443856 -0.103669 0.00125 105
1 0.203253 0.107364 0.00149979 -0.0440916 0.0187852 -0.0520258 0.00125 106
1 0.0333896 0.19001 0.00123702 0.00590006 0.00919772 -0.184422 0.00125 107
1 0.246251 0.00248956 0.00153051 0.025208 -0.00507045 0.162379 0.00125 108
1 0.277964 0.223949 0.00240226 0.0138145 0.00282354 -0.119062 0.00125 109
1 0.281148 0.315453 0.00122638 0.00122668 0.0218353 -0.0345502 0.00125 110
1 0.0889754 0.179554 0.00210745 0.036758 0.11956 -0.046695 0.00125 111
1 0.226959 0.0686459 0.00183637 0.0126702 -0.0255026 -0.213922 0.00125 112
1 0.141006 0.16295 0.00165466 0.0238095 -0.00061692 -0.0986273 0.00125 113
1 0.112397 0.0492604 0.00135778 -0.00156071 0.00313808 -0.228107 0.00125 114
1 0.00317345 0.0763733 0.0018667 -0.0192166 0.0909802 -0.169226 0.00125 115
1 0.211716 0.150929 0.00127698 -0.0143189 0.0213742 -0.23184 0.00125 116
1 0.148723 0.298866 0.00135823 0.000840302 -0.0392711 0.0156605 0.00125 117
1 0.131188 0.314052 0.00140903 -0.0215466 0.0535882 -0.246695 0.00125 118
1 0.137375 0.0740532 0.00128409 -0.0170887 -0.00634827 -0.254133 0.00125 119
1 0.237128 0.244223 0.00138549 0.0744564 0.005947 0.106689 0.00125 120
1 0.156485 0.203389 0.00135264 -0.006077 0.0123751 0.168151 0.00125 121
1 0.319634 0.00126571 0.00150143 -0.0123712 -0.012864 0.129065 0.00125 122
1 0.130189 0.0108774 0.00149125 -0.0355218 0.0017031 -0.24396 0.00125 123
1 0.296926 0.214758 0.00134523 0.00141965 0.00651955 -0.237243 0.00125 124
1 0.169017 0.331283 0.00192088 0.0719017 -0.0695012 0.0264852 0.00125 125
1 0.181982 0.310197 0.0012587 -0.011307 -0.0460033 0.0762592 0.00125 126
1 0.0957735 0.132368 0.00165686 -0.0206749 -0.0299059 -0.184399 0.00125 127
1 0.122577 0.000174365 0.00137005 -0.0418297 -0.00602893 -0.185036 0.00125 128
1 0.217304 0.283838 0.00148135 0.00713123 0.0111321 0.238884 0.00125 129
1 0.281063 0.271031 0.00137464 0.00327556 -0.00849445 -0.230514 0.00125 130
1 0.219255 0.286157 0.00148727 0.0182123 -0.0419922 0.162872 0.00125 131
1 0.060198 0.0790219 0.00243913 0.0511555 -0.0952479 0.00348818 0.00125 132
1 0.277403 0.232498 0.00144203 0.0203446 0.0284607 0.184134 0.00125 133
1 0.163507 0.301551 0.00164561 -0.00214732 0.00805735 -0.234694 0.00125 134
1 0.332372 0.259278 0.00133315 0.0067691 0.00808484 -0.106821 0.00125 135
1 0.328812 0.0569647 0.00135889 0.0365952 0.00307088 -0.227035 0.00125 136
1 0.109073 0.0151243 0.00213179 -0.0572256 -0.0185678 -0.162516 0.00125 137
1 0.252641 0.186054 0.00187373 0.00134746 0.0139105 -0.211398 0.00125 138
1 0.193649 0.331245 0.00127613 0.0478645 0.0465732 0.122324 0.00125 139
1 0.209506 0.246588 0.00139193 -0.000764471 0.00545518 0.151186 0.00125 140
1 0.0564946 0.333937 0.00168086 0.0106763 0.0159378 0.103419 0.00125 141
1 0.303778 0.0384761 0.00144015 0.00344145 -0.00633119 -0.195853 0.00125 142
1 0.0133805 0.0587653 0.00210468 0.0418816 -0.0150762 -0.0773226 0.00125 143
1 0.245218 0.10409 0.00142923 0.0117141 -0.0286919 -0.214887 0.00125 144
1 0.194158 0.230242 0.00140179 0.00779727 0.0280409 0.144342 0.00125 145
1 0.127547 0.241379 0.00166527 -0.0058699 -0.00855643 -0.22615 0.00125 146
1 0.183305 0.22829 0.00144626 0.0097959 0.00811518 -0.266512 0.00125 147
1 0.173243 0.221788 0.00247173 0.0651047 -0.0419254 0.095289 0.00125 148
1 0.0253772 0.137479 0.0014144 -0.0510038 0.0032492 -0.220062 0.00125 149
1 0.081379 0.199365 0.00236338 0.00484391 -0.0160457 -0.0469243 0.00125 150
1 0.00302027 0.138334 0.0012923 -0.0110291 -0.0051467 0.18067 0.00125 151
1 0.0126807 0.157325 0.00157476 0.016962 -0.0110697 0.146045 0.00125 152
1 0.0988809 0.30674 0.00138436 -0.007842 0.0164928 -0.280857 0.00125 153
1 0.236888 0.26608 0.00128603 -0.0858619 0.0630602 0.0253529 0.00125 154
1 0.161856 0.334516 0.00151225 0.0116413 -0.0335798 0.136378 0.00125 155
1 0.20837 0.235887 0.00129889 0.0122057 -0.00118174 0.170161 0.00125 156
1 0.0693799 0.272931 0.00147899 -0.010043 0.0152499 0.130864 0.00125 157
1 0.0407612 0.332076 0.00146284 -0.0341179 0.0162095 0.144897 0.00125 158
1 0.00753402 0.158016 0.00141172 -0.00715583 -0.0135455 0.146121 0.00125 159
1 0.104407 0.191906 0.00125021 0.026841 0.00371568 0.15383 0.00125 160
1 0.02387 0.175355 0.00130837 -0.0126474 -0.0144164 -0.223344 0.00125 161
1 0.0872335 0.0470877 0.00153473 0.0184525 -0.000344332 -0.15974 0.00125 162
1 0.339162 0.0747117 0.00130076 0.0207046 -0.00572386 -0.23949 0.00125 163
1 0.244473 0.245257 0.00190316 0.04415 0.0362383 -0.0527261 0.00125 164
1 0.110886 0.193608 0.00123678 0.00737067 0.0100039 0.198668 0.00125 165
1 0.104293 0.306092 0.0023319 0.00119584 0.0101659 -0.138565 0.00125 166
1 0.0344998 0.141044 0.00142544 0.0118732 0.00165996 0.238394 0.00125 167
1 0.114013 0.172235 0.00162316 0.0126354 0.000811908 0.0865138 0.00125 168
1 0.00739825 0.00984772 0.00155406 0.00129558 0.00673037 -0.224293 0.00125 169
1 0.0497344 0.255339 0.00190194 -0.00684683 -0.0333127 -0.204291 0.00125 170
1 0.160836 0.152843 0.00215189 0.0192037 -0.0131913 -0.0596561 0.00125 171
1 0.263194 0.0494614 0.00142179 0.00142061 0.0112309 0.173869 0.00125 172
1 0.272854 0.241278 0.00140666 0.0167346 -0.0343141 0.164929 0.00125 173
1 0.229538 0.0107634 0.00150613 0.0019371 0.00211964 0.127947 0.00125 174
1 0.254718 0.0172029 0.00147225 0.0316771 -0.0642644 0.0587202 0.00125 175
1 0.268649 0.159024 0.0012479 -0.0101729 0.0008982 0.220069 0.00125 176
1 0.27827 0.122952 0.00128868 0.0127678 0.0661215 -0.206095 0.00125 177
1 0.18402 0.0552256 0.00122909 0.0192082 0.00109931 0.0618703 0.00125 178
1 0.248136 0.290265 0.00138767 0.00205521 0.00937768 -0.0633825 0.00125 179
1 0.327628 0.323792 0.00162982 -0.00194158 0.000466387 0.121954 0.00125 180
1 0.168385 0.129856 0.00137156 0.0505282 -0.0729351 0.111896 0.00125 181
1 0.0611623 0.0733741 0.00201738 -0.00813646 -0.0412631 -0.0603333 0.00125 182
1 0.30706 0.016193 0.00144209 -0.0108791 -0.0342695 0.221151 0.00125 183
1 0.266721 0.14043 0.00202099 0.0283498 0.0143974 -0.187186 0.00125 184
1 0.193717 0.118894 0.00155266 0.00471825 -0.00603055 0.052098 0.00125 185
1 0.297736 0.278278 0.00143067 0.048633 0.00749991 0.173418 0.00125 186
1 0.013336 0.190112 0.00151237 -0.00270338 -0.00608384 -0.238005 0.00125 187
1 0.0538915 0.240059 0.00154214 0.0358145 0.0125457 0.165228 0.00125 188
1 0.121093 0.175649 0.00208615 -0.0912716 -0.0378964 -0.0446757 0.00125 189
1 0.106694 0.174942 0.0013317 0.0160242 -0.0113556 -0.219249 0.00125 190
1 0.178957 0.244973 0.00142466 -0.0592401 -0.0254142 -0.28672 0.00125 191
1 0.182255 0.19964 0.00145608 0.016202 0.0213364 -0.242464 0.00125 192
1 0.0321566 0.069689 0.00159805 0.00767195 0.0124214 0.102796 0.00125 193
1 0.290029 0.200383 0.00126622 0.0222417 -0.0162169 -0.210153 0.00125 194
1 0.176948 0.0781341 0.00158088 -0.0385457 0.0172173 0.0634871 0.00125 195
1 0.0270196 0.249917 0.00154607 -0.0142365 -0.00387006 -0.21548 0.00125 196
1 0.00481034 0.211895 0.00166116 -0.0169981 -0.0043778 -0.22011 0.00125 197
1 0.180721 0.0806989 0.00139796 0.0185549 -0.00206156 0.146265 0.00125 198
1 0.024379 0.0326812 0.00130751 -0.0321752 0.0136081 0.186353 0.00125 199
1 0.135112 0.0925787 0.0016438 0.000401497 0.0130495 -0.230272 0.00125 200
1 0.244254 0.172248 0.00210311 0.00913887 -0.00466424 -0.168963 0.00125 201
1 0.0475723 0.284032 0.00178112 0.0204046 -0.00209348 -0.219531 0.00125 202
1 0.297747 0.182312 0.00128615 -0.00909174 0.00157482 -0.127952 0.00125 203
1 0.232518 0.329993 0.00206816 -0.00463752 -0.0328733 -0.189749 0.00125 204
1 0.200338 0.223427 0.00152332 0.00508298 0.017547 -0.0936792 0.00125 205
1 0.00390096 0.260659 0.00175813 0.0268277 0.0430128 -0.245868 0.00125 206
1 0.309826 0.30913 0.00148955 -0.0339241 0.028935 -0.0678429 0.00125 207
1 0.24096 0.338927 0.0017304 -0.00289415 0.0143225 -0.119057 0.00125 208
1 0.194741 0.289844 0.00194129 -0.00867668 0.0169754 -0.196636 0.00125 209
1 0.0278466 0.274208 0.00125118 -0.016327 0.0187026 -0.0314327 0.00125 210
1 0.0851732 0.246467 0.00156625 -0.00781533 0.00787002 0.105881 0.00125 211
1 0.329387 0.14164 0.00147811 0.0481869 -0.0131518 -0.0756556 0.00125 212
1 0.0258941 0.229779 0.00187065 -0.000261839 -0.0450875 -0.170846 0.00125 213
1 0.272748 0.0142094 0.00135775 -0.0226177 -0.0162291 -0.231455 0.00125 214
1 0.328747 0.207647 0.00188408 0.0155793 0.00819541 -0.147981 0.00125 215
1 0.068116 0.263405 0.00145767 0.0127933 0.0304676 -0.185248 0.00125 216
1 0.0101211 0.335711 0.00126978 -0.0147299 -0.0205306 -0.303046 0.00125 217
1 0.0267174 0.271229 0.0023992 0.0190524 -0.00486604 -0.0941838 0.00125 218
1 0.203615 0.249494 0.00151731 0.00253649 -0.04169 -0.217324 0.00125 219
1 0.0998373 0.0471218 0.0020548 -0.00497202 0.0141432 -0.065919 0.00125 220
1 0.242085 0.21922 0.00226568 -0.0200899 -0.0132271 0.009145 0.00125 221
1 0.318856 0.190717 0.00137896 0.0253951 0.00882376 0.183196 0.00125 222
1 0.093768 0.278368 0.00137647 0.0120505 0.00421495 0.220194 0.00125 223
1 0.22045 0.331904 0.00138981 -0.0186399 -0.0010757 -0.233596 0.00125 224
1 0.296716 0.0900135 0.00141317 0.0287473 -0.00453685 0.106776 0.00125 225
1 0.228438 0.0865843 0.0016881 -0.0197008 0.0204673 0.116422 0.00125 226
1 0.29869 0.149573 0.00127061 0.0224505 -0.00400959 0.209213 0.00125 227
1 0.254035 0.280784 0.00141663 -0.027171 0.00679443 -0.220836 0.00125 228
1 0.276402 0.272032 0.00168183 0.00385909 0.00354153 -0.220553 0.00125 229
1 0.295061 0.17956 0.00170047 0.0124543 0.00928249 0.132415 0.00125 230
1 0.327698 0.185502 0.00139973 0.0173168 -0.0122961 0.248211 0.00125 231
1 0.0237064 0.15652 0.00134503 0.000553413 -0.0148937 -0.266023 0.00125 232
1 0.287412 0.294108 0.00132508 0.00729748 -0.00655688 -0.310824 0.00125 233
1 0.314046 0.091661 0.00140153 -0.040078 0.0287562 -0.143924 0.00125 234
1 0.313554 0.0323362 0.00171177 -0.0692619 -0.00600304 -0.0723221 0.00125 235
1 0.192334 0.141628 0.00201562 0.00922177 0.00682556 -0.0615404 0.00125 236
1 0.318231 0.0867873 0.00195037 -0.0250524 -0.00888683 -0.229079 0.00125 237
1 0.116929 0.188417 0.00190679 0.00620198 0.0119005 -0.217434 0.00125 238
1 0.0379328 0.24363 0.00135841 -0.00853416 -0.00114306 0.242253 0.00125 239
1 0.187915 0.113273 0.00194153 0.0152918 0.0138915 -0.0272819 0.00125 240
1 0.261647 0.182958 0.0022349 -0.0227014 0.0508847 -0.136113 0.00125 241
1 0.0637357 0.198286 0.00144595 -0.0186339 0.00503402 0.147198 0.00125 242
1 0.0169533 0.338005 0.00156568 0.0386291 -0.0239484 -0.059089 0.00125 243
1 0.335401 0.118923 0.00172802 -0.000503516 -0.020891 -0.0968351 0.00125 244
1 0.314857 0.1622 0.00124219 -0.0174139 0.0440931 -0.249066 0.00125 245
1 0.0143801 0.0801382 0.00134915 0.101198 0.0123679 -0.106936 0.00125 246
1 0.216823 0.194173 0.0014629 0.0185559 -0.00886225 -0.237168 0.00125 247
1 0.107779 0.092621 0.00180919 5.50037e-05 -0.0178824 0.130056 0.00125 248
1 0.237602 0.151041 0.00189872 -0.0289485 0.00245784 -0.21249 0.00125 249
1 0.0386487 0.0801284 0.00241624 -0.0263251 0.016816 -0.0228012 0.00125 250
1 0.103402 0.078355 0.00176023 -0.000220961 0.0215006 -0.263858 0.00125 251
1 0.336863 0.334782 0.00160446 -0.00489966 -0.0117884 0.179112 0.00125 252
1 0.160986 0.112637 0.00135837 -0.0114139 -0.0235504 0.176977 0.00125 253
1 0.127414 0.309437 0.00175191 0.0210186 0.0148697 0.127743 0.00125 254
1 0.0967075 0.0680712 0.00135984 0.0400733 0.0198241 -0.217568 0.00125 255
1 0.240514 0.136586 0.00152007 0.0115385 -0.0509207 0.14885 0.00125 256
1 0.248958 0.0569875 0.00227888 0.0158665 0.0394627 0.0207271 0.00125 257
1 0.270982 0.30929 0.00146645 0.00654722 -0.0317032 0.128246 0.00125 258
1 0.266124 0.0155669 0.00128793 0.0150132 0.0618399 -0.241507 0.00125 259
1 0.111167 0.288938 0.00197959 0.0233193 0.0239978 -0.0209995 0.00125 260
1 0.185541 0.132732 0.00146252 -0.0578984 -0.00767551 -0.226164 0.00125 261
1 0.245174 0.203951 0.00145598 0.021125 -0.00655967 0.133716 0.00125 262
1 0.0210568 0.298019 0.00123762 0.06915 -0.0405877 0.184408 0.00125 263
1 0.339233 0.308468 0.00144059 0.00174587 0.0105841 -0.227938 0.00125 264
1 0.00286505 0.00445954 0.00182712 -0.0291977 -0.0326977 -0.230795 0.00125 265
1 0.301725 0.288025 0.00147675 -0.00678642 0.0081296 0.0831151 0.00125 266
1 0.0148272 0.159023 0.00218128 -0.0115798 -0.000726226 -0.0544501 0.00125 267
1 0.322501 0.0457766 0.00179595 0.0284666 0.0189611 -0.0639482 0.00125 268
1 0.312915 0.312393 0.0012854 -0.0486462 -0.0106731 0.116228 0.00125 269
1 0.275639 0.176924 0.00138991 -0.00551925 0.000563499 0.154132 0.00125 270
1 0.264389 0.197742 0.00141662 0.0225226 -0.0229411 0.143112 0.00125 271
1 0.15297 0.0827713 0.00137706 -0.0121687 0.0546241 -0.228223 0.00125 272
1 0.0692292 0.00566478 0.00129257 -0.0197525 -0.0260266 0.189642 0.00125 273
1 0.114468 0.10037 0.00148251 -0.00092294 0.00304712 -0.193977 0.00125 274
1 0.103723 0.30317 0.00122992 0.00815024 -0.0132643 0.0291365 0.00125 275
1 0.24512 0.332423 0.00135925 0.00118317 0.00445183 0.181254 0.00125 276
1 0.325328 0.184233 0.00146041 0.00649272 -0.0223188 0.151472 0.00125 277
1 0.195583 0.0694715 0.00140497 0.0139191 0.00530733 -0.199755 0.00125 278
1 0.309564 0.322201 0.00127857 0.0114294 -0.0668931 -0.235758 0.00125 279
1 0.170931 0.0612228 0.00148223 0.0090333 0.00655751 -0.242073 0.00125 280
1 0.17914 0.278421 0.00191596 -0.0221142 -0.047316 -0.129435 0.00125 281
1 0.0725645 0.117438 0.00128513 -0.0185511 -0.0190796 -0.237247 0.00125 282
1 0.341441 0.0948894 0.00172198 -0.0709874 -0.0799255 0.105063 0.00125 283
1 0.180441 0.14526 0.00185598 -0.00489863 -0.019884 -0.250557 0.00125 284
1 0.163012 0.147198 0.00155149 0.00768717 0.0104129 0.103229 0.00125 285
1 0.20144 0.15345 0.00221862 -0.00219558 -0.0378861 -0.155779 0.00125 286
1 0.0789339 0.0747211 0.00162443 -0.00770507 0.0111279 -0.2342 0.00125 287
1 0.189739 0.12104 0.001778 0.0202512 0.00742613 -0.264267 0.00125 288
1 0.0030387 0.143372 0.00131552 -0.0229063 -0.00354766 0.177118 0.00125 289
1 0.156615 0.14965 0.00128775 0.00123475 -0.0216135 0.104949 0.00125 290
1 0.34071 0.292281 0.0014343 0.012678 0.103383 0.0978334 0.00125 291
1 0.0453421 0.0835441 0.0012382 0.00343416 -0.00950785 0.191195 0.00125 292
1 0.138398 0.0948233 0.00165746 -0.0302407 -0.0180323 0.103602 0.00125 293
1 0.312583 0.173418 0.00124559 0.0115411 0.0419755 -0.213775 0.00125 294
1 0.329603 0.26851 0.00158654 -0.0127012 0.0742008 -0.177419 0.00125 295
1 0.263981 0.120725 0.00174414 -0.029034 -0.0235838 -0.222339 0.00125 296
1 0.3145 0.144883 0.00144238 -0.0261606 0.0202512 -0.128719 0.00125 297
1 0.204484 0.0233578 0.00170848 0.0078557 -0.0375403 -0.0323103 0.00125 298
1 0.115041 0.255822 0.00215708 0.00776509 0.0236006 0.0109628 0.00125 299
1 0.0667261 0.287874 0.00160565 -0.0452758 0.076404 0.0432504 0.00125 300
1 0.273281 0.251144 0.00252565 -0.00760079 -0.00383954 0.0153647 0.00125 301
1 0.19948 0.250555 0.00133189 0.0145547 0.0924984 0.0583209 0.00125 302
1 0.0866987 0.0916674 0.00134519 0.00828004 0.0234738 -0.212022 0.00125 303
1 0.156885 0.00833294 0.00142569 0.0644188 -0.0138726 0.0922187 0.00125 304
1 0.295752 0.117564 0.00152567 0.0206882 -0.00215643 -0.0861811 0.00125 305
1 0.329486 0.173286 0.00132841 0.00539427 -5.10973e-06 0.0376407 0.00125 306
1 0.141546 0.0574543 0.0014052 -0.0447605 0.0239236 0.167406 0.00125 307
1 0.339441 0.0308637 0.00161029 -0.00162766 0.0605174 -0.181849 0.00125 308
1 0.0367991 0.174938 0.00134084 -0.0147992 0.0201298 0.243889 0.00125 309
1 0.176204 0.164695 0.00153793 -0.0112885 -0.0355221 -0.217107 0.00125 310
1 0.167962 0.0200117 0.00149489 0.0492593 -0.00717407 -0.090885 0.00125 311
1 0.0664717 0.110266 0.0013396 -0.0301958 -0.00358379 0.0745856 0.00125 312
1 0.0245639 0.116988 0.00168243 -0.0188031 0.0146938 -0.126039 0.00125 313
1 0.0879523 0.203972 0.00129508 0.0153419 0.00834231 -0.00342248 0.00125 314
1 0.283349 0.164646 0.00159418 -0.0194451 0.0503814 -0.280019 0.00125 315
1 0.0236488 0.0648018 0.00159234 0.00652535 0.00281897 -0.162349 0.00125 316
1 0.127193 0.198295 0.00165947 -0.0540993 0.0340326 -0.225931 0.00125 317
1 0.116162 0.0696506 0.00139899 0.016163 0.0129158 -0.250487 0.00125 318
1 0.181454 0.101797 0.00167343 0.00184075 -0.0631547 -0.0713913 0.00125 319
1 0.239769 0.175351 0.00175948 0.0100997 0.019537 -0.221675 0.00125 320
1 0.134405 0.288409 0.00187842 -0.0240578 -0.00967506 -0.0824203 0.00125 321
1 0.0997611 0.318429 0.00131089 -0.00289781 0.0269322 0.0900561 0.00125 322
1 0.215256 0.227314 0.00177238 0.0220105 -0.00698994 0.107539 0.00125 323
1 0.0831237 0.144424 0.00138181 -0.0465822 -0.0209027 0.13826 0.00125 324
1 0.0515204 0.253217 0.00127225 0.0287408 -0.0169254 0.0339067 0.00125 325
1 0.0926131 0.235888 0.00170644 0.0137335 -0.0828155 -0.0817946 0.00125 326
1 0.167272 0.301246 0.00135193 0.0160884 -0.00281074 -0.246691 0.00125 327
1 0.153257 0.138484 0.00215974 0.0126996 0.00108097 -0.0488197 0.00125 328
1 0.165369 0.0927798 0.00231717 0.00194863 -0.0199404 -0.0896998 0.00125 329
1 0.0931698 0.320273 0.00141288 0.00977646 -0.0101904 0.202719 0.00125 330
1 0.0733175 0.0216723 0.00140245 0.0815733 -0.00281085 -0.0860849 0.00125 331
1 0.112072 0.199923 0.0024721 0.0490188 -0.0506552 -0.0131729 0.00125 332
1 0.132902 0.303759 0.00175737 0.00531586 -0.0219182 0.127494 0.00125 333
1 0.0615527 0.173104 0.0012588 -0.0260953 -0.0392561 0.284262 0.00125 334
1 0.0723934 0.304564 0.00135107 -0.00334057 -0.0196746 0.183271 0.00125 335
1 0.0698243 0.194513 0.00129666 -0.0373828 -0.00459776 -0.210241 0.00125 336
1 0.19975 0.110149 0.00171255 0.0178992 0.00612314 -0.220113 0.00125 337
1 0.240365 0.0582307 0.00141647 0.0137566 0.0276054 0.107407 0.00125 338
1 0.166864 0.0410138 0.00146798 -0.00549872 0.0178334 0.150397 0.00125 339
1 0.0782036 0.121373 0.00145822 0.0366737 0.019095 0.0720503 0.00125 340
1 0.135582 0.0359527 0.00133109 -0.0317319 -0.0350792 -0.190997 0.00125 341
1 0.280423 0.0469149 0.00165204 0.033309 0.0107439 0.114053 0.00125 342
1 0.299592 0.0315612 0.00128048 0.00657539 0.00740842 -0.224916 0.00125 343
1 0.161505 0.254426 0.00133039 -0.0271016 -0.00947122 0.195098 0.00125 344
1 0.264561 0.262158 0.00218768 -0.00595941 0.0793247 -0.0556902 0.00125 345
1 0.158898 0.155996 0.00155333 0.008734 -0.0332529 -0.251721 0.00125 346
1 0.32324 0.146283 0.00124375 0.0147313 -0.0130345 -0.260816 0.00125 347
1 0.182642 0.204792 0.00129641 0.0147822 -0.0196076 0.202278 0.00125 348
1 0.188065 0.207285 0.00149973 0.0111653 0.0039407 0.224835 0.00125 349
1 0.146664 0.208917 0.00159086 0.0103052 -0.0176676 0.0994476 0.00125 350
1 0.0158428 0.180159 0.00173709 0.0144299 -0.026982 -0.224368 0.00125 351
1 0.0139844 0.0211287 0.0013022 -0.00456074 0.00996181 -0.207414 0.00125 352
1 0.150036 0.125611 0.00176215 -0.00465729 0.0213688 -0.178622 0.00125 353
1 0.237178 0.159001 0.00153557 0.0292017 0.00878788 -0.242311 0.00125 354
1 0.173328 0.272921 0.00210133 -0.0193956 -0.00408007 -0.172634 0.00125 355
1 0.330127 0.257972 0.00195351 -0.0401549 0.0327932 -0.08115 0.00125 356
1 0.175536 0.280203 0.00128891 -0.01485 0.0209484 0.160997 0.00125 357
1 0.265294 0.335038 0.00129128 -0.00308891 -0.00737504 0.0443415 0.00125 358
1 0.118566 0.290199 0.00129472 -0.013748 0.0387283 0.279088 0.00125 359
1 0.226152 0.0587183 0.0022765 -0.00100968 -0.0112873 -0.1362 0.00125 360
1 0.252775 0.311557 0.00133047 -0.0181285 0.00325142 -0.242221 0.00125 361
1 0.145006 0.100902 0.00123813 0.0227261 -0.00534558 -0.253596 0.00125 362
1 0.274436 0.0496612 0.00158308 0.00957969 0.0112358 0.1469 0.00125 363
1 0.0560748 0.0420974 0.00133319 -0.00814632 0.0140265 0.170736 0.00125 364
1 0.123028 0.266909 0.00151308 -0.0163697 -0.00611617 -0.243184 0.00125 365
1 0.169746 0.0177194 0.00122554 0.00327195 -0.000441001 -0.114637 0.00125 366
1 0.198373 0.25452 0.00151494 0.0278813 0.0398194 0.175046 0.00125 367
1 0.202489 0.195551 0.00220035 -0.0410816 -0.081399 -0.0860155 0.00125 368
1 0.103036 0.0240086 0.00133536 0.0055782 0.00307844 0.224727 0.00125 369
1 0.323738 0.308517 0.00191405 -0.0485003 -0.0201523 -0.199602 0.00125 370
1 0.108804 0.0520609 0.00124225 0.0104232 0.00157396 0.231341 0.00125 371
1 0.162047 0.117887 0.00142335 0.0118555 -0.00211138 0.190787 0.00125 372
1 0.141229 0.259999 0.00157788 -0.0214483 0.0775409 -0.229323 0.00125 373
1 0.27472 0.199016 0.0012479 0.0183756 -0.0128365 -0.229 0.00125 374
1 0.0956925 0.240662 0.00147729 0.0510622 0.060475 0.158664 0.00125 375
1 0.091469 0.123973 0.00140456 -5.03767e-05 0.0124753 -0.113802 0.00125 376
1 0.324984 0.318916 0.00218252 0.00702486 -0.0371559 -0.0534913 0.00125 377
1 0.114201 0.145798 0.00125149 -0.0144798 -0.0110162 0.217277 0.00125 378
1 0.273721 0.277411 0.00141392 -0.0164563 -0.0249984 0.213134 0.00125 379
1 0.126977 0.0503799 0.00151842 -0.0250122 -0.00667196 -0.293962 0.00125 380
1 0.30893 0.218028 0.0013277 -0.00673956 -0.0236769 0.0325384 0.00125 381
1 0.0612962 0.00871184 0.00147966 0.0260104 -0.0205259 0.148925 0.00125 382
1 0.19232 0.160321 0.00146322 -0.00105708 0.00422103 0.136924 0.00125 383
1 0.017541 0.327771 0.00185791 -0.0363821 0.0237436 -0.158877 0.00125 384
1 0.00229435 0.0510895 0.00140549 -0.0460497 0.0574179 -0.240863 0.00125 385
1 0.146976 0.149835 0.00221757 -0.0446198 0.0372263 -0.0530743 0.00125 386
1 0.265806 0.0367325 0.00189015 0.0252703 -0.0169472 -0.0743168 0.00125 387
1 0.164619 0.0614414 0.00182465 -0.0258248 0.0296105 -0.0404821 0.00125 388
1 0.323417 0.00119019 0.00141375 0.0406923 -0.0143584 0.173976 0.00125 389
1 0.184322 0.028544 0.00155768 0.017575 0.0217373 0.105286 0.00125 390
1 0.271422 0.27219 0.00151037 -0.013886 0.0178569 -0.186275 0.00125 391
1 0.00891589 0.132126 0.00176107 0.00850842 -0.0190203 0.147303 0.00125 392
1 0.00922231 0.125049 0.00131162 0.0166157 0.00720075 0.240641 0.00125 393
1 0.24529 0.317222 0.00124948 0.00198748 -0.00209766 0.190078 0.00125 394
1 0.00418233 0.00169368 0.00146432 0.0318989 0.0378005 0.0237053 0.00125 395
1 0.251751 0.333284 0.00174896 0.0320092 0.0139583 0.158247 0.00125 396
1 0.260377 0.0125145 0.00129438 0.0204927 -0.0485903 0.198979 0.00125 397
1 0.227961 0.0781066 0.00153761 -0.00850702 -0.00910038 -0.186323 0.00125 398
1 0.25233 0.0877672 0.00141676 0.00519697 -0.0333754 -0.216602 0.00125 399
1 0.121609 0.23367 0.00131572 -0.0292205 -0.0115417 0.177036 0.00125 400