ITEM: TIMESTEP
1000000
ITEM: NUMBER OF ATOMS
10000
ITEM: BOX BOUNDS pp pp ff
0.0000000000000000e+00 5.0150108500000001e-01
0.0000000000000000e+00 5.0150108500000001e-01
-1.2500000000000001e-02 1.2500000000000001e-02
ITEM: ATOMS type x y z vx vy vz radius id
1 0.181162 0.161044 0.00143934 0.0291237 0.0122335 0.223226 0.00125 1
1 0.459417 0.080194 0.00239025 -0.00343029 0.0126226 -0.00638292 0.00125 2
1 0.497995 0.246776 0.00250639 0.00344087 -0.006581 0.0373823 0.00125 3
1 0.41058 0.36276 0.00204012 -0.000305588 -0.00765026 -0.0800489 0.00125 4
1 0.0940145 0.428256 0.00220474 0.0656839 0.0187921 -0.0490914 0.00125 5
1 0.476347 0.363938 0.00127077 0.00227608 0.00614235 -0.221764 0.00125 6
1 0.266552 0.30371 0.0017644 0.00382934 0.00344677 0.136802 0.00125 7
1 0.449337 0.329699 0.00123204 0.00858259 -0.000534644 0.0560375 0.00125 8
1 0.0919973 0.232558 0.00145319 -0.00747245 -0.00827761 0.127876 0.00125 9
1 0.0184533 0.423164 0.00170419 -0.0153685 -0.00718588 -0.0906844 0.00125 10
1 0.339227 0.218172 0.00125756 -0.00280677 -0.0133501 -0.287956 0.00125 11
1 0.328182 0.0827746 0.00150493 -0.0152697 0.001132 -0.0625993 0.00125 12
1 0.286808 0.393809 0.00208583 -0.0124489 0.00884041 -0.171645 0.00125 13
1 0.0896838 0.189094 0.00169728 -0.0135498 -0.012742 0.0858025 0.00125 14
1 0.472239 0.30534 0.00142134 -0.0182999 0.0132353 -0.265684 0.00125 15
1 0.161572 0.0609763 0.00162871 -0.017611 0.000619798 0.0826517 0.00125 16
1 0.198119 0.365283 0.00165624 -0.0168608 -0.0178895 0.110421 0.00125 17
1 0.335731 0.0386346 0.00150242 -0.00693763 0.0214443 -0.238237 0.00125 18
1 0.283829 0.0427255 0.00190058 -0.0011338 0.00298673 -0.207925 0.00125 19
1 0.30615 0.259608 0.00139812 -0.0234124 0.0128788 -0.236611 0.00125 20
1 0.213438 0.0604607 0.00129066 0.0138395 -0.00147161 -0.313497 0.00125 21
1 0.347202 0.10123 0.00185464 -0.00864181 0.000247626 -0.210676 0.00125 22
1 0.307475 0.277893 0.00131567 0.000109093 -0.012017 -0.151143 0.00125 23
1 0.188268 0.0290628 0.00152013 -0.0184405 0.0226848 0.0632658 0.00125 24
1 0.346225 0.191852 0.00140241 0.00464181 0.0135266 -0.239522 0.00125 25
1 0.053348 0.265444 0.00154291 0.00492192 -0.00392998 0.13732 0.00125 26
1 0.187894 0.273461 0.00133783 -0.0145795 -0.0120698 -0.243265 0.00125 27
1 0.0472042 0.0988475 0.00245533 -0.0577005 0.0509304 -0.035865 0.00125 28
1 0.393831 0.355157 0.00123041 0.0177088 0.000728484 0.124452 0.00125 29
1 0.130932 0.456618 0.00157629 0.0153194 -0.0143179 -0.229723 0.00125 30
1 0.173418 0.383877 0.00136779 -0.00285604 -0.0163027 0.183678 0.00125 31
1 0.42613 0.223128 0.0014081 0.00120847 -0.0055576 0.215867 0.00125 32
1 0.125701 0.380813 0.00126911 -0.00838499 -0.00111252 0.239849 0.00125 33
1 0.0143091 0.0893601 0.00131354 -0.0011497 0.0100569 -0.235061 0.00125 34
1 0.353089 0.372161 0.00125296 0.0130066 0.0200673 -0.255005 0.00125 35
1 0.241885 0.325402 0.00132838 -0.00706769 0.0144821 -0.23606 0.00125 36
1 0.160304 0.0472808 0.00148955 -0.00939395 -0.00667656 -0.237149 0.00125 37
1 0.346618 0.44728 0.00129551 0.00588406 -0.0109826 0.0346653 0.00125 38
1 0.486882 0.0992324 0.0012581 0.0112349 0.00476567 0.0691859 0.00125 39
1 0.110755 0.167515 0.00188687 0.0214095 -0.00231468 -0.206483 0.00125 40
1 0.0502339 0.482074 0.00140622 0.0135838 -0.00780743 -0.110238 0.00125 41
1 0.315085 0.00388118 0.00172054 0.0131832 -0.0018558 -0.259696 0.00125 42
1 0.462988 0.272878 0.00177145 0.000833519 -0.00358219 -0.211812 0.00125 43
1 0.358601 0.331257 0.00134026 -0.00870002 0.0312669 0.163786 0.00125 44
1 0.142332 0.0442591 0.00134546 0.00695925 0.0143526 0.196196 0.00125 45
1 0.268311 0.215011 0.00127493 -0.00272613 -0.00358171 -0.154306 0.00125 46
1 0.183967 0.438564 0.00189684 0.0539804 -0.0232252 -0.0896259 0.00125 47
1 0.361935 0.134658 0.00128398 -0.00838002 -0.0185163 -0.247382 0.00125 48
1 0.120435 0.199174 0.00157025 0.0140419 0.0114865 -0.183629 0.00125 49
1 0.113714 0.427173 0.00125112 -0.00966379 -0.014344 -0.230297 0.00125 50
1 0.329276 0.237483 0.00139032 -0.00460813 0.00303673 0.152226 0.00125 51
1 0.364982 0.342475 0.0015262 0.0173974 -0.0159246 -0.232184 0.00125 52
1 0.20206 0.402154 0.00241615 0.00719296 0.000341386 0.0315499 0.00125 53
1 0.170675 0.22173 0.0018692 -0.00956221 0.0135708 -0.207578 0.00125 54
1 0.219781 0.192565 0.00132827 0.00202225 0.014161 -0.236714 0.00125 55
1 0.458407 0.35674 0.00145421 0.00515226 -0.00579707 0.221059 0.00125 56
1 0.0699721 0.0451554 0.0018386 0.00969464 0.0063731 -0.214697 0.00125 57
1 0.447976 0.410074 0.00162409 0.00963717 0.00956163 -0.227889 0.00125 58
1 0.000834508 0.145656 0.00171002 0.0083007 0.0264684 0.102685 0.00125 59
1 0.290325 0.271779 0.00135102 -0.00942491 0.00575952 -0.24746 0.00125 60
1 0.131969 0.0104562 0.00144182 -0.0162937 0.00247367 -0.181691 0.00125 61
1 0.276113 0.123293 0.0020722 0.0672555 -0.114281 -0.050162 0.00125 62
1 0.396201 0.0150895 0.00137978 -0.00488473 -0.0010121 0.158266 0.00125 63
1 0.28061 0.346652 0.00139888 -0.00961019 -0.0159317 -0.269841 0.00125 64
1 0.267709 0.144613 0.00229068 0.00873277 0.00802918 -0.042439 0.00125 65
1 0.204512 0.276808 0.00148065 0.00522692 0.016675 0.12381 0.00125 66
1 0.187208 0.0108762 0.00124356 0.00677359 -0.012735 0.189135 0.00125 67
1 0.0679171 0.393074 0.00180538 -0.0282199 0.0194855 -0.15397 0.00125 68
1 0.30058 0.442611 0.00144621 0.00245806 -0.00043345 -0.239024 0.00125 69
1 0.470631 0.151013 0.00127561 -0.0254555 0.00611284 -0.246288 0.00125 70
1 0.0914295 0.203422 0.00249577 0.00506015 -0.0039128 0.0275578 0.00125 71
1 0.496226 0.383408 0.00151501 -0.0436239 0.014848 0.110628 0.00125 72
1 0.142423 0.118387 0.00212197 0.001101 0.0109612 -0.0552318 0.00125 73
1 0.0696091 0.385398 0.00149601 0.01207 0.016697 -0.23858 0.00125 74
1 0.0625507 0.0915305 0.00194502 0.0526567 0.0185373 -0.210432 0.00125 75
1 0.0178885 0.333255 0.001445 -0.0207568 -0.00743785 0.217395 0.00125 76
1 0.371864 0.106556 0.00137045 0.0144358 -0.0108242 0.161725 0.00125 77
1 0.30396 0.0521819 0.00197005 -0.00768331 -0.00215344 -0.228022 0.00125 78
1 0.295557 0.300558 0.00132825 0.0123463 -0.00248117 -0.234537 0.00125 79
1 0.362581 0.411846 0.00127706 -0.0139819 0.0124906 0.239755 0.00125 80
1 0.500128 0.419152 0.00241729 0.00289791 -0.00287741 -0.111199 0.00125 81
1 0.0136038 0.0427995 0.00153112 -0.0160637 0.00405288 0.11099 0.00125 82
1 0.386831 0.379679 0.00203648 -0.00143664 -0.00217814 -0.184852 0.00125 83
1 0.409862 0.282531 0.00134108 0.0063068 -0.00874124 0.196465 0.00125 84
1 0.383211 0.078078 0.00123378 -0.000679982 -0.00237935 0.195727 0.00125 85
1 0.218582 0.0264146 0.00140406 -0.0103864 0.000944969 0.219991 0.00125 86
1 0.0134076 0.176804 0.00150118 -0.0129136 -0.0219365 -0.239006 0.00125 87
1 0.383019 0.468945 0.00233449 -0.000255205 -0.00696013 -0.117664 0.00125 88
1 0.377975 0.486948 0.00129959 0.0136925 -0.00078494 0.18252 0.00125 89
1 0.190603 0.000589742 0.00122969 0.0101942 -0.00564387 -0.0740163 0.00125 90
1 0.423562 0.100909 0.00188034 0.0163226 0.00475418 -0.207384 0.00125 91
1 0.318276 0.425571 0.00138799 -0.00705107 -0.00555563 -0.184997 0.00125 92
1 0.0326371 0.420257 0.00141352 -0.0236354 0.0134521 -0.276818 0.00125 93
1 0.0170332 0.392024 0.00216564 0.0384551 -0.00798693 -0.191085 0.00125 94
1 0.474624 0.487206 0.00175619 -0.0328332 0.0152893 0.124786 0.00125 95
1 0.464848 0.30144 0.00136825 -0.013644 -0.000153773 -0.238275 0.00125 96
1 0.33444 0.194556 0.00168005 0.00998155 -0.00588214 -0.22838 0.00125 97
1 0.228138 0.0224646 0.00160615 -0.000848978 0.00971713 -0.283721 0.00125 98
1 0.136973 0.174691 0.00145868 0.00663392 -1.8047e-05 0.219664 0.00125 99
1 0.276857 0.031487 0.00129398 -0.000872856 -0.0259515 -0.211577 0.00125 100
1 0.486142 0.174817 0.00128776 0.00879635 -0.00323314 -0.247423 0.00125 101
1 0.0328901 0.244596 0.00146523 -0.0224767 -0.013067 -0.197097 0.00125 102
1 0.471641 0.452495 0.00132961 -0.00656875 0.00498351 -0.199662 0.00125 103
1 0.0109248 0.150112 0.0020907 -0.00219943 0.011898 -0.206103 0.00125 104
1 0.319262 0.285098 0.00135584 -0.000503199 0.0132015 -0.226463 0.00125 105
1 0.016914 0.464738 0.00145443 -0.00195212 0.00970617 0.217821 0.00125 106
1 0.181774 0.358693 0.00129589 0.00499784 -0.00737532 -0.232905 0.00125 107
1 0.40957 0.113809 0.00149854 -0.00370834 0.00569476 0.207165 0.00125 108
1 0.250644 0.155015 0.00135406 -0.015744 0.00846277 -0.187483 0.00125 109
1 0.373085 0.256531 0.00161615 0.0109872 0.0152418 -0.231979 0.00125 110
1 0.362281 0.369829 0.00125087 0.0150434 -0.0687916 -0.0640382 0.00125 111
1 0.0645372 0.211666 0.00142212 0.0166594 -0.0244142 -0.0842279 0.00125 112
1 0.0206413 0.281575 0.00123439 0.00148167 -0.00259483 -0.120726 0.00125 113
1 0.258937 0.0912648 0.002325 -0.01533 -0.00260899 -0.053125 0.00125 114
1 0.296128 0.0666887 0.00244907 -0.00527973 -0.00260953 -0.0369806 0.00125 115
1 0.122995 0.134485 0.00173689 0.0160522 -0.000849378 -0.223478 0.00125 116
1 0.444048 0.393873 0.00140246 0.00160912 -0.00589197 0.185483 0.00125 117
1 0.261488 0.0812986 0.00137289 -0.00719292 0.00731612 0.183216 0.00125 118
1 0.171886 0.324375 0.00138461 0.0311704 -0.0128288 -0.307488 0.00125 119
1 0.0179158 0.399862 0.0014943 -0.0168619 0.0174294 0.12091 0.00125 120
1 0.131357 0.0230351 0.00169823 0.0222736 -0.0548041 -0.0704236 0.00125 121
1 0.25616 0.0768472 0.00152053 -0.00569285 -0.00243641 0.20462 0.00125 122
1 0.193765 0.454384 0.00131133 -0.00383013 0.0124892 0.178947 0.00125 123
1 0.45628 0.46061 0.00132297 -0.0105733 0.03925 0.253063 0.00125 124
1 0.345745 0.361444 0.00125326 0.0100569 0.00641659 -0.104208 0.00125 125
1 0.315155 0.198038 0.00234838 -0.000897397 0.0198445 -0.0256181 0.00125 126
1 0.0918227 0.00867052 0.00210001 -0.00574441 -0.00771416 -0.207183 0.00125 127
1 0.324037 0.0508668 0.00159337 0.00344954 -0.0153613 -0.238178 0.00125 128
1 0.194352 0.380849 0.001805 -0.00403037 -0.0186324 0.112198 0.00125 129
1 0.388169 0.238885 0.00173749 -0.00294164 -0.00985274 0.111134 0.00125 130
1 0.397288 0.477046 0.00181713 -0.0700439 -0.0466926 -0.183619 0.00125 131
1 0.00834603 0.230133 0.00144946 0.0743412 -0.0475526 0.0122479 0.00125 132
1 0.0474453 0.0733132 0.0013346 -0.00655776 -0.0259009 -0.227155 0.00125 133
1 0.17943 0.0813459 0.00132078 0.0128567 0.0102308 0.195746 0.00125 134
1 0.310777 0.362427 0.00126544 0.0150096 0.00175462 0.188706 0.00125 135
1 0.378036 0.212719 0.00149545 0.00111561 -0.0247959 -0.232153 0.00125 136
1 0.129739 0.33821 0.00136822 0.00178625 -0.0035016 -0.235053 0.00125 137
1 0.332892 0.309874 0.0013205 0.00184546 0.0020932 0.17496 0.00125 138
1 0.458213 0.497697 0.00153016 0.00463631 -0.0117105 -0.190397 0.00125 139
1 0.239397 0.432579 0.00163415 0.00386234 0.007904 -0.0506661 0.00125 140
1 0.474786 0.428058 0.00124896 -0.00449534 0.0263542 -0.220652 0.00125 141
1 0.0868238 0.17647 0.00142375 -0.0079948 0.00405135 -0.0949515 0.00125 142
1 0.354576 0.463551 0.00140503 -0.00971509 -0.00235639 0.184547 0.00125 143
1 0.251927 0.279012 0.00252116 0.0121892 0.0112307 0.0359694 0.00125 144
1 0.216284 0.427691 0.00124735 -0.00725553 0.00273114 0.0985877 0.00125 145
1 0.425261 0.369203 0.00132514 -0.0307432 0.00893468 0.247408 0.00125 146
1 0.120094 0.0308816 0.00126288 0.0102129 -0.00457216 0.200185 0.00125 147
1 0.347982 0.438486 0.00145468 0.0181229 -0.00829009 -0.0518032 0.00125 148
1 0.340308 0.165971 0.00136691 0.0154898 0.006751 -0.186152 0.00125 149
1 0.4388 0.254601 0.0015246 -0.00507634 0.0143337 0.110641 0.00125 150
1 0.389947 0.169047 0.00134467 0.00214925 0.0010862 -0.238206 0.00125 151
1 0.423384 0.0272401 0.00143464 0.0139758 0.0089305 -0.187705 0.00125 152
1 0.11954 0.380553 0.00165917 -0.00845895 -0.00477875 0.0980383 0.00125 153
1 0.164658 0.2702 0.00134315 -0.0102315 0.0275494 -0.233573 0.00125 154
1 0.0721198 0.0886058 0.00177615 0.00114311 -0.00198794 0.118471 0.00125 155
1 0.212589 0.432701 0.00132296 -0.000160938 -0.0160537 0.240117 0.00125 156
1 0.317667 0.360211 0.00127095 -0.014845 -0.00334186 -0.0895471 0.00125 157
1 0.410934 0.498722 0.00140398 0.0125333 -0.0250939 0.145291 0.00125 158
1 0.169911 0.41232 0.00155901 -0.00905888 -0.0147356 -0.190918 0.00125 159
1 0.354991 0.392145 0.00123851 -0.00553858 0.0166674 -0.251135 0.00125 160
1 0.168147 0.108284 0.0016011 -0.0110443 -0.00875213 0.0989516 0.00125 161
1 0.406085 0.355444 0.00222912 0.00886163 0.0202672 -0.0459943 0.00125 162
1 0.440186 0.464318 0.00130939 -0.00179527 0.0118292 0.231862 0.00125 163
1 0.329191 0.294847 0.00210161 -0.0319765 0.023285 -0.0467934 0.00125 164
1 0.411636 0.483751 0.00206099 -9.98303e-05 -0.0118591 -0.216927 0.00125 165
1 0.340224 0.300807 0.00171943 -0.000931955 -0.00818413 -0.0516476 0.00125 166
1 0.233327 0.151862 0.00158395 0.0117959 0.00186841 0.0981497 0.00125 167
1 0.222442 0.377948 0.00144692 -0.0253797 -0.00298972 0.13646 0.00125 168
1 0.188728 0.403093 0.00154203 -0.0475894 -0.00207729 -0.214638 0.00125 169
1 0.0865458 0.245375 0.00195226 -0.0474442 0.0153929 -0.137856 0.00125 170
1 0.363724 0.0316314 0.00175535 0.0137414 0.0113457 0.162521 0.00125 171
1 0.283547 0.279706 0.0018645 0.00735547 0.0111479 -0.0856716 0.00125 172
1 0.367902 0.341029 0.00124764 0.0136476 -0.0122853 0.197409 0.00125 173
1 0.462202 0.36375 0.00145816 -0.0169761 0.0193777 0.130308 0.00125 174
1 0.166779 0.468166 0.00170843 0.00809632 -0.0106412 -0.225916 0.00125 175
1 0.0171903 0.44889 0.0014534 -0.0135875 0.0121646 0.221369 0.00125 176
1 0.357921 0.480898 0.00164227 0.00570598 -0.00511095 -0.227224 0.00125 177
1 0.414139 0.289542 0.00249026 -0.0059075 0.00458718 -0.0345542 0.00125 178
1 0.229161 0.152223 0.00232142 0.0280165 0.000626497 -0.0450103 0.00125 179
1 0.38578 0.118754 0.00139716 0.010165 0.0151011 -0.239112 0.00125 180
1 0.0564186 0.136033 0.00172548 0.00510067 0.0196764 -0.220154 0.00125 181
1 0.189098 0.232386 0.00134417 -0.0129321 -0.0230004 0.168423 0.00125 182
1 0.489352 0.390637 0.00173911 -0.0114685 -0.0118552 -0.0830627 0.00125 183
1 0.132124 0.397227 0.00123804 -0.0130703 -0.00203342 -0.189825 0.00125 184
1 0.141258 0.0330146 0.00125398 -0.00423428 0.0148269 0.196891 0.00125 185
1 0.172305 0.353904 0.00165718 0.00298594 0.00518928 -0.0406325 0.00125 186
1 0.485482 0.501155 0.00129323 0.00863566 0.0240278 -0.233656 0.00125 187
1 0.34344 0.468394 0.00181636 -0.00699831 -0.00215837 0.113322 0.00125 188
1 0.0152851 0.163502 0.00177702 -0.00774541 -0.0150345 -0.0654791 0.00125 189
1 0.410966 0.415689 0.00223432 0.00457416 -0.0303468 -0.147134 0.00125 190
1 0.35187 0.180396 0.00126883 0.00134453 -0.00524878 -0.0221091 0.00125 191
1 0.213047 0.338362 0.00130749 -0.0134015 -0.00838157 -0.238463 0.00125 192
1 0.0566532 0.294631 0.00219706 0.00978146 -5.34017e-05 -0.0526483 0.00125 193
1 0.289577 0.20559 0.00130482 -0.00892193 0.00549262 0.184926 0.00125 194
1 0.107556 0.0168289 0.00135121 -0.00963671 0.00577552 0.18854 0.00125 195
1 0.427913 0.217887 0.00123253 0.0157068 0.00644225 0.0107655 0.00125 196
1 0.260606 0.275035 0.00139414 0.00256662 0.00546981 -0.188511 0.00125 197
1 0.00446917 0.395928 0.0016418 -0.0032864 -0.00207281 0.0578264 0.00125 198
1 0.476617 0.19318 0.00251715 -0.00219319 0.00624918 0.0388395 0.00125 199
1 0.312017 0.0135488 0.00133315 -0.0184967 0.00774583 -0.191431 0.00125 200
1 0.0468845 0.393794 0.00127264 0.00352116 -0.00299222 0.239844 0.00125 201
1 0.250556 0.116315 0.00204131 0.00811054 -0.00499833 -0.00427952 0.00125 202
1 0.267914 0.124011 0.00142263 0.00941351 0.00550673 0.24126 0.00125 203
1 0.0458849 0.02183 0.00195834 -0.0336491 0.00948335 -0.0711603 0.00125 204
1 0.185043 0.3959 0.00145398 -0.00855685 -0.0152001 -0.236869 0.00125 205
1 0.201235 0.331053 0.00229563 0.00399618 -0.0015081 -0.0467112 0.00125 206
1 0.292211 0.281089 0.00155864 -0.010138 0.00697707 0.0963685 0.00125 207
1 0.378054 0.217721 0.00130646 -0.0212198 -0.00290236 -0.234343 0.00125 208
1 0.334044 0.467087 0.00152565 -0.00909191 0.00239039 -0.191162 0.00125 209
1 0.0784972 0.0193621 0.001366 0.0185308 0.0204315 0.160401 0.00125 210
1 0.251647 0.285767 0.00220898 0.00296542 0.00205054 -0.0323824 0.00125 211
1 0.205746 0.00968789 0.0015364 -0.0218663 0.0228206 -0.236922 0.00125 212
1 0.385407 0.303783 0.00188426 0.00208569 -0.00724848 -0.214751 0.00125 213
1 0.150026 0.282409 0.00123173 -0.00488017 0.000366195 -0.0224036 0.00125 214
1 0.171477 0.245146 0.00206842 0.00809154 0.00706531 -0.0484625 0.00125 215
1 0.329063 0.333777 0.00162235 -5.09683e-05 0.00670034 0.0925219 0.00125 216
1 0.140338 0.44316 0.001431 -0.00422114 -0.00861969 -0.188274 0.00125 217
1 0.317046 0.477872 0.0013541 0.0213856 0.0259467 -0.272453 0.00125 218
1 0.225954 0.25968 0.00160469 0.0212679 0.0240834 -0.228295 0.00125 219
1 0.0204832 0.161417 0.00132897 0.0204594 -0.00137971 0.177012 0.00125 220
1 0.148384 0.114994 0.00123035 -0.00128409 -0.00934683 0.041617 0.00125 221
1 0.125856 0.0954906 0.00132488 -0.00780706 -0.0216367 0.19396 0.00125 222
1 0.450779 0.467475 0.00246061 -0.0105427 -0.00508926 -0.0316182 0.00125 223
1 0.321613 0.124022 0.0016897 -0.00651628 0.02091 -0.244219 0.00125 224
1 0.478949 0.00506723 0.00123887 0.00384297 0.00327119 -0.221054 0.00125 225
1 0.437445 0.318579 0.00126468 -0.0062958 -0.000533981 -0.226689 0.00125 226
1 0.27369 0.334321 0.00128691 0.00908451 0.0102042 -0.281356 0.00125 227
1 0.274293 0.388746 0.00152603 -0.000673371 -0.00456003 0.105378 0.00125 228
1 0.166579 0.331925 0.00179268 0.00545012 -0.0027606 -0.0783979 0.00125 229
1 0.264321 0.358745 0.00248015 0.0151175 0.0125906 -0.0356148 0.00125 230
1 0.159531 0.462568 0.00131861 -0.0056109 -0.00353504 0.178866 0.00125 231
1 0.330396 0.0922041 0.00151634 -0.0486771 0.0215099 -0.170405 0.00125 232
1 0.326203 0.369584 0.0012652 -0.00418023 0.00427898 -0.193538 0.00125 233
1 0.24898 0.055501 0.00123707 0.0070741 0.00599422 -0.181134 0.00125 234
1 0.0870838 0.259571 0.00154215 0.000736934 -0.00376672 -0.176034 0.00125 235
1 0.0224187 0.293734 0.00137139 0.0142044 -0.0183489 -0.223594 0.00125 236
1 0.263642 0.262437 0.00211838 0.0179975 0.0127412 -0.014147 0.00125 237
1 0.165098 0.0996109 0.00203094 0.00541039 -0.0117968 -0.0629755 0.00125 238
1 0.14497 0.421638 0.00135949 -0.00489663 -0.018527 0.182225 0.00125 239
1 0.301539 0.27948 0.00149653 0.0264651 -0.014122 0.115614 0.00125 240
1 0.132084 0.392774 0.00136415 0.00650962 -0.00130122 -0.201503 0.00125 241
1 0.0353773 0.0233099 0.00133883 -0.0176699 -0.00688895 -0.232762 0.00125 242
1 0.140084 0.176974 0.00124961 0.0172074 -0.0176099 0.202836 0.00125 243
1 0.0614421 0.00778477 0.00167418 0.0270973 -0.0321046 -0.226104 0.00125 244
1 0.492228 0.422474 0.00143753 0.018618 0.00256072 -0.241006 0.00125 245
1 0.431146 0.204906 0.00127158 0.00311633 -0.0155551 -0.187842 0.00125 246
1 0.23314 0.210007 0.00145103 0.00550443 0.00297711 -0.240114 0.00125 247
1 0.139028 0.0272453 0.00142149 -0.0130499 -0.00305086 0.219313 0.00125 248
1 0.261396 0.183382 0.00217077 -0.00099044 0.000319095 -0.0208775 0.00125 249
1 0.0354528 0.491907 0.00141037 0.00591066 -0.0271436 0.150016 0.00125 250
1 0.35491 0.294707 0.00230479 -0.00395189 0.00139259 -0.0267928 0.00125 251
1 0.310715 0.420974 0.00128268 -0.00373304 0.00522111 -0.23243 0.00125 252
1 0.315385 0.424226 0.00162018 0.00622804 -0.00791771 0.0519458 0.00125 253
1 0.28944 0.485134 0.00139964 0.00194149 0.018678 0.149946 0.00125 254
1 0.0987608 0.122655 0.00158965 -0.010778 -0.00115067 -0.234617 0.00125 255
1 0.090661 0.0183739 0.00133344 0.00923823 0.0202647 0.170878 0.00125 256
1 0.454158 0.104104 0.00164046 0.00499953 -0.000825419 0.0538286 0.00125 257
1 0.366736 0.176639 0.00233175 0.016683 0.00981426 -0.118285 0.00125 258
1 0.0414886 0.308639 0.00136852 -0.00455935 0.00251048 0.158259 0.00125 259
1 0.142603 0.0947413 0.0016628 -0.0391336 0.000476505 0.112854 0.00125 260
1 0.15956 0.472592 0.00178015 0.00906205 -0.00978105 0.0922429 0.00125 261
1 0.464948 0.0254637 0.00139459 0.00933033 -0.00245278 0.151926 0.00125 262
1 0.431002 0.15203 0.00157328 -0.0113921 0.014313 -0.230133 0.00125 263
1 0.155322 0.18277 0.00128383 -0.0288735 -0.00630871 0.237859 0.00125 264
1 0.348712 0.395099 0.00147272 -0.0234501 -0.00512096 -0.196396 0.00125 265
1 0.00206869 0.376686 0.00124321 0.00744984 -0.0105789 -0.236566 0.00125 266
1 0.103842 0.319234 0.00172002 0.00077499 0.00700196 -0.0957358 0.00125 267
1 0.00705941 0.444108 0.00147718 -0.00818245 0.0065227 0.122557 0.00125 268
1 0.292934 0.139768 0.00156752 -0.00965537 0.0026965 -0.229289 0.00125 269
1 0.342605 0.0724214 0.00237045 -0.0150426 0.0116901 -0.0599447 0.00125 270
1 0.20692 0.13601 0.00183542 0.0128875 0.0111933 -0.212644 0.00125 271
1 0.49172 0.00985161 0.00123094 -0.0239111 -0.00973852 0.12792 0.00125 272
1 0.493843 0.245685 0.00145724 0.00583379 -0.00173139 0.222748 0.00125 273
1 0.040203 0.341939 0.00131071 0.0234075 -0.00649948 -0.236379 0.00125 274
1 0.373827 0.324502 0.00134686 -0.0316737 0.0204251 -0.233138 0.00125 275
1 0.151723 0.324832 0.00201503 -0.00188835 0.0159919 -0.000307811 0.00125 276
1 0.0985259 0.379594 0.00140205 -7.28193e-05 0.00785534 0.241941 0.00125 277
1 0.264366 0.394289 0.0017622 0.0043352 0.00300123 -0.0896785 0.00125 278
1 0.307472 0.345421 0.00171408 -0.0114024 -0.0234295 -0.233657 0.00125 279
1 0.00927013 0.498091 0.00213526 0.00739922 0.0135587 -0.168613 0.00125 280
1 0.383227 0.483446 0.00185194 0.00195707 0.00890788 -0.0682223 0.00125 281
1 0.463949 0.0920046 0.00184496 0.00583933 0.00260308 -0.254055 0.00125 282
1 0.331475 0.492142 0.00225573 0.0143634 -0.00497967 0.0196636 0.00125 283
1 0.0283018 0.37943 0.00137065 0.0159769 0.0179105 -0.238531 0.00125 284
1 0.183313 0.453885 0.00132252 0.0247381 0.00872696 0.171118 0.00125 285
1 0.0118091 0.44036 0.00128542 0.00857624 0.00420953 -0.238347 0.00125 286
1 0.26273 0.139945 0.00241564 -0.0144715 -0.00942743 7.88134e-05 0.00125 287
1 0.0716275 0.336155 0.00147806 -0.0154742 0.00453493 -0.19537 0.00125 288
1 0.367352 0.491614 0.00131409 0.0115054 0.0356548 0.267011 0.00125 289
1 0.477474 0.0878763 0.00229542 -0.00732121 -0.0118061 -0.0472595 0.00125 290
1 0.164943 0.0533594 0.00155966 0.00564111 0.00736642 -0.0576796 0.00125 291
1 0.376932 0.303649 0.00155937 -0.00762297 0.00465002 -0.290958 0.00125 292
1 0.20354 0.102211 0.00138888 0.0128886 -0.0143397 0.214979 0.00125 293
1 0.0418708 0.200232 0.00134805 0.00359467 -0.00726156 0.194531 0.00125 294
1 0.190855 0.23766 0.00142609 -0.00156582 0.0172605 0.104669 0.00125 295
1 0.365109 0.466532 0.00165419 0.000147876 0.0182081 -0.0934775 0.00125 296
1 0.317421 0.340389 0.00147646 -0.00590247 0.0103191 -0.237286 0.00125 297
1 0.344825 0.45611 0.0012949 -0.00932469 0.024662 0.186999 0.00125 298
1 0.312882 0.19996 0.00122397 0.00581482 0.0185002 0.0346026 0.00125 299
1 0.4308 0.00493678 0.00149327 0.0156136 -0.012008 -0.180062 0.00125 300
1 0.176401 0.221768 0.00135281 0.00868297 -0.00044104 0.22951 0.00125 301
1 0.0078183 0.0417348 0.00216648 0.00273961 -0.00526594 -0.156654 0.00125 302
1 0.0592429 0.149292 0.00250803 0.00369066 0.00389379 -0.0149888 0.00125 303
1 0.0594194 0.209875 0.00134263 -0.0219227 -0.00549811 -0.244539 0.00125 304
1 0.227772 0.483448 0.00134338 0.0181663 0.00175013 0.227949 0.00125 305
1 0.0987963 0.371805 0.00236885 0.0134144 -0.013958 -0.0417029 0.00125 306
1 0.251769 0.22237 0.00227522 0.00685626 0.0263973 -0.0338003 0.00125 307
1 0.0058479 0.231608 0.00156825 -0.0707065 0.0387382 -0.166702 0.00125 308
1 0.0325962 0.16083 0.00140362 0.00412478 -0.000845263 -0.203341 0.00125 309
1 0.0583467 0.224169 0.00152462 -0.003565 -0.00283139 -0.0879329 0.00125 310
1 0.389179 0.271106 0.00153237 0.00896061 0.00189546 0.109612 0.00125 311
1 0.140191 0.0935501 0.00126225 0.00505101 0.00777013 0.232171 0.00125 312
1 0.18602 0.100411 0.00150859 0.000658007 -0.00398682 0.111954 0.00125 313
1 0.029777 0.161855 0.00180036 0.00478351 -0.00447766 0.0945261 0.00125 314
1 0.027352 0.269916 0.00135268 0.01408 -0.0370003 0.179471 0.00125 315
1 0.146202 0.278436 0.00154321 -0.00501542 -0.000993207 -0.283514 0.00125 316
1 0.141409 0.449094 0.00147962 0.00391867 0.0110791 -0.232178 0.00125 317
1 0.414432 0.178546 0.00146216 -0.00838916 0.00546894 0.227498 0.00125 318
1 0.486505 0.453304 0.00132141 -0.0289258 -0.0246826 0.230433 0.00125 319
1 0.0264162 0.484041 0.00124431 0.00599759 0.000693775 -0.297598 0.00125 320
1 0.290395 0.290682 0.00127334 -0.0084481 0.00411457 -0.125756 0.00125 321
1 0.204422 0.250516 0.00154016 -0.0167356 0.0189171 -0.109165 0.00125 322
1 0.401666 0.0963083 0.0019045 -0.00938827 -0.00192113 -0.204206 0.00125 323
1 0.454798 0.252017 0.0022132 0.00659082 0.00462047 -0.0628989 0.00125 324
1 0.174022 0.360203 0.00135983 -0.0179473 0.0100457 -0.235252 0.00125 325
1 0.369785 0.286965 0.00124642 0.0188707 -0.0309964 -0.212108 0.00125 326
1 0.499819 0.290215 0.00133355 0.00639899 0.0119381 -0.236386 0.00125 327
1 0.234112 0.0929435 0.00122884 0.000820556 0.0081012 0.000657504 0.00125 328
1 0.129449 0.204835 0.00145049 0.0127101 -0.0121877 0.219131 0.00125 329
1 0.319254 0.3463 0.00124079 -0.014191 0.00226987 0.236352 0.00125 330
1 0.292275 0.21376 0.00178727 0.00739402 0.0031756 -0.0460196 0.00125 331
1 0.272693 0.0423268 0.00141664 -0.00346032 -0.0128545 0.219536 0.00125 332
1 0.0448129 0.272075 0.00126575 -0.0343518 0.00150508 -0.213929 0.00125 333
1 0.374739 0.272594 0.00138327 -0.0125626 0.015807 -0.23835 0.00125 334
1 0.30728 0.0221228 0.00140753 -0.0106193 0.00148725 0.112307 0.00125 335
1 0.173339 0.467846 0.00150162 0.00579032 0.00974619 -0.175571 0.00125 336
1 0.100894 0.137236 0.00234317 -0.00722635 0.00473013 -0.0437272 0.00125 337
1 0.455431 0.196014 0.0018201 -0.0186551 0.0175209 -0.197946 0.00125 338
1 0.312216 0.320932 0.00223708 0.00302024 -0.0106753 -0.0301723 0.00125 339
1 0.103261 0.210801 0.00123594 -0.00858848 0.00652461 0.150169 0.00125 340
1 0.175063 0.193486 0.00126887 0.00419848 0.0220504 0.192035 0.00125 341
1 0.418854 0.364555 0.00136578 0.00115842 0.00271079 0.147841 0.00125 342
1 0.340649 0.0236134 0.00175825 0.00499568 -0.0043601 -0.0395717 0.00125 343
1 0.360981 0.102589 0.00136317 -0.00355974 0.00120994 -0.237117 0.00125 344
1 0.16146 0.200719 0.00189193 -7.30361e-05 0.00389826 -0.0842857 0.00125 345
1 0.237142 0.182332 0.00244468 0.0117402 0.0094898 -0.00526064 0.00125 346
1 0.491487 0.434205 0.00175621 -0.0070633 0.0142981 0.139065 0.00125 347
1 0.0316217 0.393095 0.00134037 0.0136382 -0.00368852 -0.225296 0.00125 348
1 0.0602496 0.287886 0.00139547 0.000848088 0.011054 0.181285 0.00125 349
1 0.301596 0.331928 0.00160756 -0.00995378 -0.0158555 -0.231678 0.00125 350
1 0.258545 0.471014 0.00148183 -0.0611219 -0.0452156 -0.262828 0.00125 351
1 0.0239995 0.166216 0.00150347 0.00161878 -0.0200821 -0.236679 0.00125 352
1 0.131718 0.172011 0.00136017 0.0587665 -0.110192 0.0466559 0.00125 353
1 0.43296 0.391359 0.00139465 -0.0160258 -0.00138633 -0.0747656 0.00125 354
1 0.203112 0.0828231 0.00169275 -0.0162896 0.0266187 -0.0905335 0.00125 355
1 0.0917741 0.227293 0.00138308 -0.00352252 -0.00748396 0.222595 0.00125 356
1 0.444393 0.167575 0.00151553 -0.00503761 -0.00342292 0.202801 0.00125 357
1 0.0637883 0.0347839 0.00236501 0.0243244 0.00709532 0.0297495 0.00125 358
1 0.135077 0.12061 0.00188255 0.00121467 -0.00701294 -0.246143 0.00125 359
1 0.36536 0.311729 0.00162392 -0.00521473 0.00274989 -0.173522 0.00125 360
1 0.15104 0.3014 0.0013821 -0.00100841 0.0265994 -0.233475 0.00125 361
1 0.258879 0.27926 0.00204644 0.0550333 0.000881244 -0.185753 0.00125 362
1 0.272172 0.0956066 0.00124816 -0.00724836 0.00498139 -0.228386 0.00125 363
1 0.170893 0.279129 0.00152873 0.0210234 0.00260475 -0.191045 0.00125 364
1 0.389152 0.225166 0.00175352 0.00879878 0.0109722 0.136202 0.00125 365
1 0.0612977 0.238902 0.00155864 0.0507826 -0.00179812 -0.239295 0.00125 366
1 0.398005 0.430911 0.00161773 -0.0193872 0.00798201 -0.232209 0.00125 367
1 0.175828 0.0667218 0.0019137 0.0145468 0.007435 -0.0716874 0.00125 368
1 0.198711 0.288875 0.00130245 -0.0137451 -0.00386412 0.165773 0.00125 369
1 0.441643 0.227663 0.00133739 -0.00804421 0.00425006 -0.24002 0.00125 370
1 0.360124 0.39766 0.00238988 -0.0172136 -0.00466224 -0.0236629 0.00125 371
1 0.335407 0.187886 0.00132848 -0.00683129 -0.0188046 0.173658 0.00125 372
1 0.184028 0.232382 0.0013728 -0.00132131 0.0129148 0.22205 0.00125 373
1 0.202367 0.267363 0.00161128 -0.00195772 0.00353684 -0.0581609 0.00125 374
1 0.0760786 0.353307 0.00240424 0.0121698 -0.000916125 -0.121637 0.00125 375
1 0.285989 0.227319 0.00175172 -0.00751032 0.00250914 0.127678 0.00125 376
1 0.412728 0.413018 0.00148846 0.0114711 0.017492 -0.0902922 0.00125 377
1 0.374702 0.135398 0.00140049 -0.0301333 0.00290878 -0.184154 0.00125 378
1 0.31323 0.191044 0.00175883 -0.00814564 0.00500037 -0.180575 0.00125 379
1 0.125244 0.0833481 0.00243429 -0.000793867 0.0161488 -0.0379328 0.00125 380
1 0.351234 0.403766 0.00127818 -0.0161726 0.00298421 0.187965 0.00125 381
1 0.305633 0.133297 0.00137771 0.0179833 0.00378204 0.251085 0.00125 382
1 0.226474 0.422757 0.00250104 -0.00420155 -0.0151464 -0.0351594 0.00125 383
1 0.0248371 0.342321 0.00143263 0.00209666 0.0151658 0.141248 0.00125 384
1 0.236059 0.380336 0.00230863 0.0102055 -0.0184389 -0.0451336 0.00125 385
1 0.0996368 0.294768 0.00176548 -0.0209025 -0.00991979 0.136192 0.00125 386
1 0.421613 0.0734184 0.00130258 -0.0206575 -0.0095944 -0.234995 0.00125 387
1 0.385481 0.132815 0.00139127 0.00205092 -0.0169755 -0.223405 0.00125 388
1 0.0909945 0.240075 0.00138799 -0.0303453 0.0269464 -0.193565 0.00125 389
1 0.290424 0.0614714 0.00124381 0.0121951 0.0121269 0.184567 0.00125 390
1 0.470852 0.465412 0.00171377 -0.0067182 0.00035799 -0.270472 0.00125 391
1 0.369553 0.0694907 0.00144737 -0.00273027 0.00511327 -0.239545 0.00125 392
1 0.0738647 0.415796 0.00129571 0.00238031 -0.0313435 0.0207028 0.00125 393
1 0.192889 0.378629 0.00144374 0.00143278 0.00558614 0.217619 0.00125 394
1 0.107272 0.0835604 0.00149761 0.00924598 -0.00472192 0.0662116 0.00125 395
1 0.0629215 0.170749 0.00135927 -0.01031 0.0220755 0.162211 0.00125 396
1 0.417515 0.253781 0.00174389 0.00278926 -0.000291976 0.126588 0.00125 397
1 0.120324 0.0353303 0.00217157 -0.0054268 -0.00823672 -0.191324 0.00125 398