ITEM: TIMESTEP
1000000
ITEM: NUMBER OF ATOMS
10000
ITEM: BOX BOUNDS pp pp ff
0.0000000000000000e+00 1.4250790300000000e+00
0.0000000000000000e+00 1.4250790300000000e+00
-1.2500000000000001e-02 1.2500000000000001e-02
ITEM: ATOMS type x y z vx vy vz radius id
1 0.77315 1.30804 0.00122665 0.00235003 -0.00143345 0.0970494 0.00125 1
1 0.378161 0.167727 0.00181984 -0.00818453 -0.00587223 0.115506 0.00125 2
1 1.09995 0.82244 0.00157323 -0.00806148 -0.00309906 0.111607 0.00125 3
1 0.855819 0.0147799 0.00130162 -0.00113482 -0.00105107 0.181184 0.00125 4
1 0.932905 0.594579 0.00135305 -0.00648453 -0.00125191 0.168272 0.00125 5
1 0.553526 1.30162 0.00155927 0.000854802 -0.00281561 -0.229623 0.00125 6
1 1.00284 1.11265 0.00135817 0.00470541 -0.000476268 -0.235247 0.00125 7
1 0.0503626 1.04066 0.00129461 -0.00316644 -0.00183534 0.0611354 0.00125 8
1 1.14506 1.06736 0.00182454 0.00188132 -0.0020103 -0.0697702 0.00125 9
1 0.403506 0.174393 0.00122556 0.00284303 0.00457405 0.0335222 0.00125 10
1 0.589079 0.754307 0.00147998 -0.000226406 0.000319011 -0.196838 0.00125 11
1 0.554866 0.305986 0.00139073 0.00785964 0.00180443 0.219021 0.00125 12
1 0.534633 0.237054 0.00127922 -0.0011253 0.000312806 -0.23334 0.00125 13
1 0.607238 1.35007 0.00136486 0.00801798 -0.000595638 -0.238367 0.00125 14
1 1.17768 0.141602 0.00142987 -0.00146662 0.00336743 -0.0698877 0.00125 15
1 1.0724 0.784666 0.00154895 -0.00197838 0.00179583 -0.23699 0.00125 16
1 0.103411 1.42267 0.00129738 0.00638098 0.000568513 -0.238104 0.00125 17
1 1.04615 1.28291 0.00140511 -0.00242866 -0.00177041 0.151507 0.00125 18
1 0.0175774 0.187355 0.00138764 0.00145767 -0.000594141 0.248621 0.00125 19
1 1.42087 0.858789 0.00138725 -0.00112396 0.00124933 -0.239077 0.00125 20
1 1.39976 0.33783 0.00127857 0.00447071 -0.00457255 -0.224364 0.00125 21
1 1.09947 1.24295 0.00142079 -0.00747243 0.00707414 -0.239846 0.00125 22
1 1.07204 0.58649 0.00127496 -0.000292049 0.000294694 -0.247499 0.00125 23
1 1.25737 0.989985 0.00186972 0.00852258 0.00725319 -0.250223 0.00125 24
1 0.130487 0.445474 0.00173703 -0.00196071 -0.001788 -0.0950438 0.00125 25
1 0.663142 0.664127 0.00151919 -0.00163536 0.00939056 0.130294 0.00125 26
1 1.32167 1.32507 0.0013454 0.00449802 0.0185813 0.188817 0.00125 27
1 1.33979 1.32025 0.00210103 -0.00146152 -0.00570671 -0.206919 0.00125 28
1 0.920954 1.19705 0.00169761 -0.00451348 -0.00165962 -0.086126 0.00125 29
1 0.935041 0.56697 0.00137926 0.00198204 -0.000260548 -0.249099 0.00125 30
1 0.0400763 0.621872 0.00174241 2.57607e-05 -7.67524e-06 -0.266652 0.00125 31
1 0.667475 0.913884 0.00143723 0.0140242 -0.00543603 0.255253 0.00125 32
1 0.404118 0.256153 0.00125637 -0.0218942 -0.00673442 0.181805 0.00125 33
1 0.354997 0.581808 0.00156209 -7.61402e-05 -0.000118403 0.0965729 0.00125 34
1 0.84487 0.62396 0.00131974 0.000427323 -0.00628777 0.195758 0.00125 35
1 0.643477 1.31243 0.0015002 0.00399567 -0.00229866 -0.194218 0.00125 36
1 0.716097 0.780108 0.00131203 0.0141029 0.00223351 0.198359 0.00125 37
1 0.132402 0.318525 0.00124996 0.00159398 0.0059657 -0.22833 0.00125 38
1 0.626625 0.975337 0.00190152 0.00322911 -0.00214919 -0.208162 0.00125 39
1 1.07192 1.30126 0.00125421 -0.0033077 0.00133282 -0.23054 0.00125 40
1 0.182608 0.794856 0.00198313 0.00125031 -0.00160859 -0.193359 0.00125 41
1 0.23363 1.33024 0.00151964 0.00555236 0.00868172 -0.195605 0.00125 42
1 0.261231 1.0198 0.00247246 0.00111181 -0.000471437 -0.0360406 0.00125 43
1 0.256715 1.13449 0.00132955 -0.00755349 -0.0039293 0.171026 0.00125 44
1 0.433048 0.486746 0.00165073 -0.005273 0.0159216 -0.0880333 0.00125 45
1 0.500808 0.0183374 0.00131595 0.00609793 -0.0015588 0.196563 0.00125 46
1 0.421839 1.42042 0.0019465 -0.00219615 -0.00265853 -0.0798402 0.00125 47
1 0.75943 1.02318 0.00175589 0.00588856 0.000638278 -0.0222783 0.00125 48
1 0.805187 0.337541 0.00123779 -4.95303e-05 0.000388138 0.166478 0.00125 49
1 0.844124 0.345676 0.00127704 0.000170088 -0.000594657 -0.23156 0.00125 50
1 0.160067 0.981472 0.00139539 -0.000324667 -0.000432757 0.173711 0.00125 51
1 1.06054 0.92655 0.00185138 -0.00580989 0.00107333 -0.210965 0.00125 52
1 1.29543 1.28948 0.00187498 0.00165206 0.00195309 -0.211892 0.00125 53
1 0.505377 1.00964 0.00132024 -0.00101151 0.00240154 0.258721 0.00125 54
1 0.608159 1.23915 0.00251635 0.00120503 -0.00176606 -0.0544309 0.00125 55
1 0.981018 0.277321 0.00137773 -0.00110213 0.000424761 0.18213 0.00125 56
1 0.946431 0.474033 0.00135277 -0.0161096 0.00361602 -0.236135 0.00125 57
1 0.587218 1.37803 0.00132942 0.000433537 0.000113157 -0.224254 0.00125 58
1 0.245489 0.882468 0.00136584 4.90671e-05 0.002409 0.147762 0.00125 59
1 0.220167 0.496884 0.00152563 -0.0142445 -0.00269582 0.11129 0.00125 60
1 0.235476 0.546991 0.00167283 -0.00134828 0.000113339 -0.276255 0.00125 61
1 0.888106 0.0541906 0.0015379 -0.00284877 0.000921366 -0.241028 0.00125 62
1 1.16411 1.37533 0.00124686 -0.00274889 0.000167604 0.277864 0.00125 63
1 0.451977 0.205446 0.00138769 -0.00218108 -0.00152611 -0.201129 0.00125 64
1 1.22861 0.947656 0.00153893 -0.00495854 0.00308666 0.105296 0.00125 65
1 0.275497 0.548809 0.00233567 0.000993769 0.00524179 -0.147441 0.00125 66
1 1.15581 0.884284 0.00202065 0.0054046 0.00336385 -0.195604 0.00125 67
1 0.735366 0.98725 0.0015917 -0.0052643 -0.00618944 -0.178748 0.00125 68
1 0.445845 0.39287 0.00216991 -0.00612824 0.000739213 -0.0583896 0.00125 69
1 0.67067 0.00748367 0.001331 -0.0110547 -0.00400327 -0.235862 0.00125 70
1 1.14918 1.09525 0.00125966 0.00150251 0.00463889 -0.232024 0.00125 71
1 1.07394 0.963381 0.00139179 0.0110299 0.00524208 -0.199931 0.00125 72
1 0.296656 0.503176 0.00171058 0.00404128 0.00960252 0.0654515 0.00125 73
1 1.19729 0.68702 0.00153456 0.000380799 0.00103805 -0.190516 0.00125 74
1 1.33736 0.466229 0.00152942 -0.0214648 0.0165645 -0.235217 0.00125 75
1 1.02328 0.356042 0.00154617 -0.00461934 -0.00471087 0.0639698 0.00125 76
1 1.3477 0.348724 0.00134894 -0.00273797 -0.00206541 0.188092 0.00125 77
1 0.470976 0.469209 0.00129388 -0.00115029 0.00524959 -0.232023 0.00125 78
1 1.1058 0.138756 0.00194103 0.00288462 0.0078466 -0.0849085 0.00125 79
1 0.579826 1.07299 0.00157698 -0.0072176 0.00247761 -0.282672 0.00125 80
1 0.995868 0.232953 0.00134237 0.00115228 0.00278287 -0.296504 0.00125 81
1 0.760464 1.1134 0.00137455 -0.00100456 -0.00229576 0.183027 0.00125 82
1 0.297445 0.912584 0.00128602 0.00414012 -0.00157703 -0.195302 0.00125 83
1 0.885402 0.0108679 0.00134447 0.00123336 -0.00102228 0.00363761 0.00125 84
1 0.0561285 0.309156 0.00142338 0.00211159 -1.83886e-06 0.174674 0.00125 85
1 0.552161 1.24088 0.00129995 0.00141719 0.00227284 0.207685 0.00125 86
1 0.77221 1.11941 0.00235324 0.00609874 0.00669381 -0.117774 0.00125 87
1 0.794554 0.487413 0.00124107 0.00160625 -0.00372313 0.237787 0.00125 88
1 1.24872 1.07667 0.00122945 -0.000546609 -0.00472311 -0.065277 0.00125 89
1 0.109949 0.539737 0.00212323 -0.00464993 0.0019921 -0.0561569 0.00125 90
1 0.0599256 0.416528 0.00135603 0.00261651 -0.00709776 0.224996 0.00125 91
1 0.0481371 0.216322 0.00197283 0.00161001 0.000634627 -0.190163 0.00125 92
1 0.913364 0.429573 0.00142169 0.000265369 -0.000755071 -0.183322 0.00125 93
1 0.736223 0.0719321 0.00138897 0.00215398 0.00117766 0.15671 0.00125 94
1 1.08429 0.000997607 0.0013013 -0.00157569 -0.000978908 0.200613 0.00125 95
1 0.846851 0.569664 0.00175556 -0.00996044 -0.00560593 0.119912 0.00125 96
1 0.252474 0.175017 0.00200747 0.00322256 0.0018383 -0.0582623 0.00125 97
1 0.948305 0.0406811 0.00190495 0.00282617 0.00197408 -0.204824 0.00125 98
1 1.10418 1.06219 0.00166407 0.000616608 0.00369745 -0.0487366 0.00125 99
1 0.918254 1.17355 0.00139898 -0.00284337 0.00336239 -0.2007 0.00125 100
1 0.0741966 0.839695 0.00140109 -0.00118887 -0.00322437 0.217777 0.00125 101
1 0.462821 0.654884 0.00158322 0.0016074 -0.00106389 0.0809326 0.00125 102
1 0.0617114 0.214683 0.0020164 -0.00284862 -0.00324077 -0.187822 0.00125 103
1 0.045773 0.720707 0.00244215 0.002334 -0.00133453 -0.0320599 0.00125 104
1 1.20635 0.807801 0.00205 0.00733924 0.0133625 -0.0628 0.00125 105
1 0.97232 0.919353 0.00123051 0.000766162 -0.000113774 -0.0491325 0.00125 106
1 1.17158 0.417743 0.00195282 0.00276582 -0.000503515 -0.197255 0.00125 107
1 0.87813 0.812041 0.00148972 0.00876169 0.0227772 0.22752 0.00125 108
1 0.738845 1.38141 0.00198319 -4.95142e-05 -0.00229809 -0.231468 0.00125 109
1 1.31168 0.638825 0.00123023 -0.000803852 0.00193744 -0.0310967 0.00125 110
1 0.618599 0.459449 0.00131135 -0.00387042 0.000885307 0.234276 0.00125 111
1 0.251651 0.824781 0.002246 8.89005e-05 0.000486328 -0.142109 0.00125 112
1 0.750251 0.544979 0.00141863 -0.0122874 -0.00593128 0.145814 0.00125 113
1 0.238379 0.457846 0.00141408 0.000756076 0.00130505 -0.241458 0.00125 114
1 0.146483 0.905674 0.00128289 0.000674717 0.00216954 -0.201953 0.00125 115
1 0.832411 1.05109 0.00165903 -0.000567743 0.00254077 -0.226101 0.00125 116
1 1.33359 1.32646 0.00151137 0.000977144 -0.0106338 0.109119 0.00125 117
1 0.795197 0.906461 0.00183598 -0.00185281 -0.00505667 -0.253534 0.00125 118
1 1.08186 0.869244 0.00142113 -0.00153022 -0.000439655 0.218054 0.00125 119
1 1.35265 1.35795 0.00138369 0.00518898 0.00596095 0.22196 0.00125 120
1 0.181596 0.658928 0.00137764 0.0167153 -0.0234859 0.220475 0.00125 121
1 0.950819 1.17896 0.00125445 0.00385522 0.00264956 -0.209094 0.00125 122
1 1.14371 0.601593 0.00129339 -0.000408306 0.00101097 -0.276057 0.00125 123
1 0.905261 0.935723 0.00124054 -0.000661806 0.000270456 -0.177191 0.00125 124
1 0.652007 0.786857 0.00167546 0.00292261 0.00303978 -0.0535539 0.00125 125
1 0.809521 0.782291 0.00131218 -0.00460302 0.0135612 -0.224291 0.00125 126
1 0.107924 0.267965 0.00155712 0.00112784 0.000542456 -0.18676 0.00125 127
1 1.3508 0.513983 0.00125658 0.00429415 -0.00475323 0.0216441 0.00125 128
1 0.265334 1.11448 0.00143708 0.00355112 0.000687084 -0.190504 0.00125 129
1 0.0834907 1.18904 0.00138523 0.00189527 0.00121176 -0.238789 0.00125 130
1 0.152964 0.280562 0.00153688 0.00548744 -0.000616952 -0.256439 0.00125 131
1 1.0409 1.24125 0.00149053 -0.0144959 -0.00315989 -0.237884 0.00125 132
1 0.454331 1.07828 0.00140498 0.00104721 -0.00697082 0.179746 0.00125 133
1 0.058967 1.08018 0.00164082 -0.00140072 -0.00296049 -0.172371 0.00125 134
1 0.160418 1.36438 0.00134745 -0.00035869 0.0023195 -0.202684 0.00125 135
1 1.11405 0.125524 0.00128194 -0.00621435 0.00787518 0.190258 0.00125 136
1 0.188257 0.646189 0.00130738 -0.00247051 -8.91086e-05 -0.234017 0.00125 137
1 1.1488 0.959231 0.00135556 0.00310021 0.000668464 -0.152722 0.00125 138
1 0.254146 1.38305 0.00249301 -0.00627138 0.00468594 0.0372819 0.00125 139
1 0.180757 0.738466 0.0018063 -0.000347655 -0.000965512 -0.257966 0.00125 140
1 0.471581 0.742701 0.00154114 -0.00517044 0.00484545 0.1202 0.00125 141
1 0.0831367 1.35877 0.0022021 -0.000120604 -0.000199884 -0.162531 0.00125 142
1 0.145711 0.296569 0.00152073 -0.0080523 -0.0181527 0.136679 0.00125 143
1 0.0278325 0.819919 0.00145688 -0.00112896 0.000600272 0.133328 0.00125 144
1 0.747028 1.09884 0.00191702 -0.00745421 -0.0026233 -0.214549 0.00125 145
1 1.14611 0.645918 0.00125348 0.00238959 0.00363922 -0.248378 0.00125 146
1 1.38289 0.759978 0.00123026 -2.88179e-05 2.01892e-05 -0.0150439 0.00125 147
1 1.41383 1.4035 0.00134759 -0.0206529 -0.0133232 0.169601 0.00125 148
1 0.00942714 1.20109 0.00135698 0.00269062 9.35919e-05 -0.0559255 0.00125 149
1 0.279717 0.984119 0.00147684 0.00232124 0.00504854 -0.232249 0.00125 150
1 0.534989 0.986658 0.00159829 -0.00759594 0.000941472 0.21289 0.00125 151
1 1.20591 1.00109 0.00142264 -0.0101528 0.0044039 -0.199057 0.00125 152
1 0.935026 0.753231 0.00225025 -0.0023437 0.00136278 0.0189657 0.00125 153
1 1.23495 0.180737 0.00174882 -0.000765068 0.000620952 -0.198413 0.00125 154
1 0.3724 0.274505 0.00161085 0.00971842 -0.0025284 -0.23271 0.00125 155
1 1.38625 0.773609 0.00127245 0.00219699 -0.000510025 -0.234874 0.00125 156
1 0.992046 0.613709 0.00122684 0.000350329 0.000487186 -0.1177 0.00125 157
1 0.0469862 1.06915 0.00167192 0.00641356 0.00271731 -0.0888609 0.00125 158
1 1.04057 0.51761 0.00122874 0.00300144 0.00522593 -0.0531582 0.00125 159
1 0.911761 0.679848 0.00126587 0.00438304 0.0143255 -0.231435 0.00125 160
1 0.969621 0.662669 0.00252188 0.00608864 0.00333359 0.0232684 0.00125 161
1 0.529402 0.727403 0.00142982 -0.00295558 -0.0137662 -0.231266 0.00125 162
1 0.957353 1.37541 0.00128474 0.004747 0.0078142 -0.189975 0.00125 163
1 0.983382 0.951803 0.00152355 0.000971997 -0.00141736 -0.190956 0.00125 164
1 1.22239 0.898637 0.00159262 -0.00246592 -0.00269114 -0.228995 0.00125 165
1 0.628804 0.968058 0.0013642 0.000297561 0.00385212 0.255072 0.00125 166
1 0.626661 0.597432 0.00199944 -0.00293185 -0.000222984 -0.0594812 0.00125 167
1 1.33182 0.318652 0.00124565 0.00168109 -0.0092436 -0.298975 0.00125 168
1 0.743717 1.39157 0.00123383 -0.00270871 -0.002239 0.166444 0.00125 169
1 1.1965 0.94297 0.00147091 0.00467958 0.00159481 0.221644 0.00125 170
1 0.151093 0.813896 0.00205527 -0.00725585 0.00380017 -0.181543 0.00125 171
1 0.874823 0.536464 0.00125989 -0.0021496 0.000291577 -0.230668 0.00125 172
1 0.589963 1.02581 0.00125878 0.00362298 0.0038614 -0.23078 0.00125 173
1 0.782635 0.38485 0.00124739 -2.83689e-05 0.000323292 -0.227093 0.00125 174
1 1.11302 1.40248 0.0016901 -0.000144858 0.00161223 -0.083249 0.00125 175
1 0.881528 0.051264 0.00156851 -0.00565918 0.00258995 0.0476606 0.00125 176
1 0.000810354 1.35308 0.00129021 -0.00284463 -0.0049221 0.236826 0.00125 177
1 0.681828 0.604991 0.0013897 0.00278077 0.00186887 0.179842 0.00125 178
1 0.720234 0.385765 0.00166176 -0.000822222 0.00173887 -0.229347 0.00125 179
1 0.393421 0.0661121 0.00146996 0.00041467 -0.000204011 0.129662 0.00125 180
1 0.940403 1.02305 0.00124681 -0.0067672 -0.000332688 -0.245474 0.00125 181
1 0.898951 0.42995 0.00174748 0.00874896 0.00179772 -0.230325 0.00125 182
1 1.20251 0.308985 0.00144005 -0.00151662 -0.00365636 -0.237439 0.00125 183
1 0.967787 0.890243 0.0013213 -0.00030915 -0.000147666 -0.205282 0.00125 184
1 0.61727 0.201658 0.00129975 -0.00531302 -0.00865192 -0.219748 0.00125 185
1 0.5364 0.364111 0.00129921 -0.00260589 0.00207028 0.235669 0.00125 186
1 1.2439 1.24008 0.00186218 0.001336 0.000372989 -0.0738245 0.00125 187
1 1.18527 0.235285 0.00135441 -0.00522429 0.00620065 -0.226611 0.00125 188
1 0.349445 0.51589 0.0016211 0.000428116 -0.00144766 -0.0921709 0.00125 189
1 0.827537 0.556871 0.00137046 0.000924989 -0.00693357 -0.237585 0.00125 190
1 0.294782 0.616935 0.00130447 -0.00981094 -0.0109352 0.180352 0.00125 191
1 0.6488 1.20573 0.00142496 -0.000922489 -0.00066557 0.140542 0.00125 192
1 0.0104466 0.329539 0.00157436 0.00125431 -0.000109599 0.0977757 0.00125 193
1 1.18249 0.216922 0.00140015 -0.00951148 -0.00458352 -0.247384 0.00125 194
1 1.3336 0.843151 0.00152381 -0.000929827 0.00157188 0.0696629 0.00125 195
1 1.38826 1.12227 0.00130479 9.79659e-05 0.000628477 -0.234194 0.00125 196
1 1.38317 0.517674 0.00136977 0.000148204 -0.005403 0.163338 0.00125 197
1 0.747777 0.99086 0.00127673 0.00905063 -0.00196639 0.189693 0.00125 198
1 0.42614 0.681264 0.00146264 -0.000506884 -0.00199163 0.163413 0.00125 199
1 0.274236 0.772698 0.00130054 0.00163476 0.000105902 -0.234206 0.00125 200
1 0.948561 0.159157 0.00128499 -0.000119621 -0.000811347 -0.233201 0.00125 201
1 1.21678 1.09219 0.00127328 0.00128978 -0.00586724 -0.229512 0.00125 202
1 0.82008 0.79728 0.00150898 0.00100162 -7.06527e-06 0.217003 0.00125 203
1 0.0109894 0.805365 0.00212407 0.00978653 0.0104104 -0.203685 0.00125 204
1 1.41481 0.718189 0.00162089 0.00256664 0.000938063 0.0945785 0.00125 205
1 0.526509 0.2626 0.00122574 -0.00201992 -0.00197944 -0.0834637 0.00125 206
1 1.17507 0.201029 0.00164857 -0.000427296 -0.0007092 -0.230788 0.00125 207
1 0.809366 0.774938 0.00143325 -0.00271679 -0.0137559 -0.0988909 0.00125 208
1 0.43702 1.33756 0.00128574 0.0007996 0.00268155 0.0529379 0.00125 209
1 1.25156 0.058026 0.0019079 0.00511667 -0.000935457 -0.0710613 0.00125 210
1 1.29278 0.537882 0.00238433 -0.00866205 -0.00541641 -0.0411724 0.00125 211
1 0.869833 0.68812 0.00224451 -0.000288548 0.000776246 -0.050673 0.00125 212
1 0.931475 1.25954 0.00127366 -0.00323089 -0.00016959 0.208371 0.00125 213
1 0.170811 0.478729 0.00125307 -0.00076827 -0.00142023 0.219931 0.00125 214
1 0.221379 1.3745 0.00140259 -0.000906138 -0.00422704 -0.293653 0.00125 215
1 0.7995 0.770922 0.00123584 -0.000237927 0.000395839 0.154275 0.00125 216
1 1.30467 0.527537 0.00163488 0.00348434 0.00283916 -0.178845 0.00125 217
1 0.601593 0.98394 0.00215965 0.00332598 0.00205488 -0.0554202 0.00125 218
1 0.928182 0.986487 0.00129181 0.00397274 -0.00252103 -0.237845 0.00125 219
1 1.12231 0.11869 0.00212882 -0.00570047 0.00119656 -0.0754793 0.00125 220
1 0.0496639 0.27489 0.0012777 -0.0028814 0.000264951 0.186895 0.00125 221
1 0.294599 1.0005 0.00144819 0.000294204 0.00384638 -0.239316 0.00125 222
1 0.683435 0.215804 0.00149324 0.000689358 -0.000711181 -0.0763209 0.00125 223
1 0.946435 0.454514 0.00175384 -0.00251551 0.00195041 -0.0403275 0.00125 224
1 0.518765 1.27231 0.00185298 0.000709161 -0.00229414 -0.196735 0.00125 225
1 0.720317 0.272852 0.00123644 0.00207544 0.00230806 0.161051 0.00125 226
1 0.701111 1.21608 0.00134371 -0.000783575 0.00307303 -0.309911 0.00125 227
1 1.22024 0.96651 0.00184663 -0.00638522 0.00163341 -0.211624 0.00125 228
1 0.158205 0.143609 0.00143642 -0.00435636 0.00613161 0.169682 0.00125 229
1 0.733686 0.410698 0.00133699 0.00496947 -0.000655222 -0.309747 0.00125 230
1 1.00155 0.481649 0.0018141 -0.00457058 -0.00538455 0.11021 0.00125 231
1 0.190275 0.778454 0.0015855 0.00348646 -0.00277856 -0.180422 0.00125 232
1 0.601357 0.782428 0.00244021 0.00134636 0.000104551 -0.0764757 0.00125 233
1 1.10731 1.34365 0.00136696 0.00288645 0.00166506 0.188513 0.00125 234
1 1.04516 1.09738 0.00161869 -0.00549468 -0.00868223 0.0864875 0.00125 235
1 0.690101 0.102361 0.00143252 0.00122127 -0.00121609 0.138252 0.00125 236
1 0.506457 0.183922 0.00232249 -0.00271651 -0.00206251 -0.118322 0.00125 237
1 0.418306 1.29684 0.00226445 0.000579822 0.0006643 -0.131611 0.00125 238
1 0.182155 0.0668673 0.00145952 -0.00616434 -0.0052206 -0.196791 0.00125 239
1 0.635575 0.256297 0.00152533 0.00606025 0.000460303 -0.190787 0.00125 240
1 0.890078 0.288967 0.00153163 -0.0187612 0.00132354 0.0592037 0.00125 241
1 1.39567 0.804284 0.00138128 0.00276944 0.00227722 0.181899 0.00125 242
1 0.595875 0.956154 0.00137854 -0.0017026 0.000518921 0.187345 0.00125 243
1 0.262694 0.0509098 0.00135879 -0.000239241 0.000775174 0.2258 0.00125 244
1 0.6878 0.869193 0.00134226 0.0035965 0.00292821 0.189295 0.00125 245
1 0.0118689 0.70785 0.00183751 0.000120702 -3.71544e-05 -0.0729532 0.00125 246
1 0.107766 0.340832 0.001423 0.000433724 0.00769402 -0.240127 0.00125 247
1 1.08271 1.13956 0.00135948 -0.00346966 -0.00182734 -0.235413 0.00125 248
1 0.313048 0.206947 0.0012857 0.0316719 -0.0338165 -0.231499 0.00125 249
1 0.101564 0.629547 0.00152643 -0.000305718 0.00419083 -0.190201 0.00125 250
1 0.636884 0.843262 0.00133089 -0.0115658 0.00964689 0.229566 0.00125 251
1 1.26542 0.164271 0.00122893 0.0041549 -0.00648541 0.0201056 0.00125 252
1 0.422461 1.08264 0.00156624 0.00557133 -0.0040447 -0.241156 0.00125 253
1 0.91405 0.895907 0.00203377 -0.00563463 -0.00175022 -0.222099 0.00125 254
1 0.93045 0.948073 0.0017503 -0.00153969 -0.00176014 -0.223929 0.00125 255
1 1.30401 0.502886 0.00138782 -0.00121287 -0.00651577 0.179803 0.00125 256
1 0.595405 1.3473 0.00146434 -0.00102486 0.0111153 0.128639 0.00125 257
1 0.688032 1.32295 0.00123744 0.00117032 -0.000839651 -0.185531 0.00125 258
1 1.34721 0.0467167 0.00201229 0.00347576 0.0128567 -0.0654886 0.00125 259
1 0.173144 0.865072 0.00171201 -0.0010678 0.00245079 -0.191421 0.00125 260
1 0.0972427 0.16674 0.00196081 -0.00365145 0.00493164 -0.0381281 0.00125 261
1 1.0285 0.679473 0.001326 -0.00454721 0.0020937 -0.235843 0.00125 262
1 0.0130788 0.166903 0.00124865 -0.00432184 0.00162237 0.244966 0.00125 263
1 0.195278 0.101798 0.00138639 -0.00384289 -0.00568501 0.18035 0.00125 264
1 1.04475 0.724451 0.00135838 -0.00994854 -0.0066224 -0.227325 0.00125 265
1 1.20674 0.860255 0.0012298 8.86877e-05 -3.59541e-05 0.0117748 0.00125 266
1 0.233727 1.03105 0.00130937 0.00237374 0.000837187 -0.114823 0.00125 267
1 0.262258 1.36141 0.00137384 0.00366523 -0.00209345 -0.268148 0.00125 268
1 0.512628 1.16395 0.00239511 0.00197675 -0.00141078 -0.000244976 0.00125 269
1 0.114673 1.04394 0.00137541 -0.0175352 0.00381717 0.186235 0.00125 270
1 1.12362 0.1385 0.00140776 0.00376225 -0.00820882 0.147531 0.00125 271
1 0.751934 0.409582 0.00203411 0.00283734 0.00795939 -0.184893 0.00125 272
1 1.09031 0.439758 0.00178525 0.00595178 0.00420583 0.0861093 0.00125 273
1 0.929136 0.0814933 0.00196891 -0.00590108 0.00925852 -0.0678764 0.00125 274
1 0.359272 0.476692 0.0012889 0.000273803 -0.00601559 -0.233299 0.00125 275
1 0.486062 0.462308 0.00215979 0.000166726 0.000895037 -0.0704566 0.00125 276
1 1.05127 0.987663 0.00125155 0.000498533 0.00105746 -0.0188876 0.00125 277
1 0.269378 0.897981 0.00176861 -0.0018996 4.87899e-05 -0.0515066 0.00125 278
1 0.867397 0.732065 0.00177559 -0.0100976 -0.000594393 -0.215643 0.00125 279
1 0.89121 1.35728 0.00142328 -0.00223486 -0.00260796 0.144721 0.00125 280
1 0.0224684 0.178978 0.00219827 0.00497974 0.00144022 -0.153551 0.00125 281
1 0.697722 0.811686 0.00136693 0.00528351 -0.00927151 -0.227754 0.00125 282
1 0.249499 0.933612 0.00122573 -0.00317559 0.00152418 -0.0635892 0.00125 283
1 0.0020922 1.13157 0.00156207 -0.00174367 -0.00148443 -0.235523 0.00125 284
1 1.03996 1.0254 0.001571 0.00336981 0.00487872 0.0604982 0.00125 285
1 0.553622 0.85747 0.00173343 0.00199379 0.00140924 -0.0838973 0.00125 286
1 1.01562 0.529248 0.00135815 -0.000115511 0.00377611 0.0423805 0.00125 287
1 0.868709 0.262756 0.00139536 -0.00456957 0.00248637 0.216876 0.00125 288
1 0.640455 1.29443 0.00135809 0.00655918 -0.00173549 -0.278274 0.00125 289
1 0.121115 0.00341074 0.00197918 -8.94439e-05 3.54565e-05 -0.0055438 0.00125 290
1 0.634798 0.861351 0.00160822 -0.0013427 -0.00458035 0.217032 0.00125 291
1 0.774383 1.13415 0.00168501 0.00418381 -0.00556495 -0.274261 0.00125 292
1 0.844314 0.369508 0.00128544 0.00472738 -0.00307919 0.211377 0.00125 293
1 0.597478 0.299336 0.00128124 0.000511118 0.00490355 0.206278 0.00125 294
1 0.894709 0.658026 0.00228437 -0.00133395 0.00258139 -0.162456 0.00125 295
1 0.0739615 0.0905788 0.00156946 0.00131047 -0.000184864 -0.0488848 0.00125 296
1 0.058039 0.30238 0.0012393 0.0127001 0.00533211 0.18651 0.00125 297
1 0.447711 0.934397 0.00226823 -0.000360896 0.000147596 -0.0108043 0.00125 298
1 0.440638 0.133674 0.00244867 0.000667769 -0.000915461 -0.0379776 0.00125 299
1 0.740819 0.563929 0.00157588 -0.00605794 0.000899825 0.0591124 0.00125 300
1 1.39039 0.0723468 0.00132465 -0.00317591 -0.00169339 0.19595 0.00125 301
1 0.760546 0.87969 0.00164658 0.00962727 -0.00810883 -0.171992 0.00125 302
1 0.668216 1.34568 0.00138958 -0.00200545 3.87671e-05 0.223688 0.00125 303
1 0.617061 0.89615 0.0012836 -0.00997603 0.000772737 0.204548 0.00125 304
1 0.545381 1.09563 0.00125447 0.000232451 -0.00193154 -0.238703 0.00125 305
1 0.847989 1.07813 0.00245554 -0.0052392 -0.00294347 -0.0684401 0.00125 306
1 0.254957 0.629216 0.0015926 0.000763015 -0.00279548 -0.237311 0.00125 307
1 0.011663 0.963438 0.00126757 -0.000401579 0.00129245 -0.196324 0.00125 308
1 0.533855 0.0205525 0.00138509 0.00270569 -0.00142317 0.136098 0.00125 309
1 0.78687 0.69468 0.00140552 -0.00151378 -0.00119298 -0.221395 0.00125 310
1 1.08867 0.423381 0.00152465 -0.00350264 -0.00263633 0.109379 0.00125 311
1 0.819799 0.425563 0.00144472 0.000990109 -0.00889209 0.0954424 0.00125 312
1 0.959707 0.41646 0.00185555 -0.00121663 0.00352556 -0.0752986 0.00125 313
1 0.118715 1.24374 0.00162683 -0.000605329 1.70345e-06 -0.0927205 0.00125 314
1 0.396014 0.624197 0.00226534 -0.0101393 0.00040426 -0.145429 0.00125 315
1 0.480617 0.798786 0.00161785 -0.000998378 0.000616025 0.0578912 0.00125 316
1 0.297778 0.949235 0.00225622 0.00383974 -0.000555187 -0.136197 0.00125 317
1 0.241227 1.40472 0.00137139 -0.00216615 0.00657214 -0.226935 0.00125 318
1 0.0724987 1.32179 0.00150842 -0.00134851 -0.00465267 -0.238389 0.00125 319
1 0.299636 0.265851 0.00147591 0.00108826 0.00242492 0.111036 0.00125 320
1 1.24211 0.572756 0.00124611 -0.000608811 -0.00648669 -0.285541 0.00125 321
1 1.03849 0.232007 0.00230458 1.85926e-05 0.000211321 -0.0438754 0.00125 322
1 0.965306 0.966913 0.0016047 -0.00151324 -0.000427711 -0.250234 0.00125 323
1 1.03358 0.594055 0.00145398 -0.000199711 -0.00233933 0.0918408 0.00125 324
1 0.620272 1.13954 0.00143227 0.0102197 0.00683227 -0.239846 0.00125 325
1 0.867994 0.772963 0.0016305 0.000100304 0.00179376 -0.235593 0.00125 326
1 1.28338 0.149522 0.00192348 0.000711314 0.000760516 -0.0815281 0.00125 327
1 0.95725 0.488017 0.0018862 0.0202273 0.00384061 -0.206313 0.00125 328
1 0.0470444 0.00831574 0.00240915 -0.00567849 0.00197635 -0.0909598 0.00125 329
1 0.270095 0.939212 0.00219413 -0.000118745 0.000187137 -0.0531594 0.00125 330
1 1.2969 0.329363 0.00141069 0.00387277 0.0018007 0.146149 0.00125 331
1 0.89313 0.913473 0.00241703 0.000912972 -0.00453218 -0.0391164 0.00125 332
1 1.32788 0.788411 0.00126863 -0.000706794 -0.0011342 -0.247633 0.00125 333
1 0.51127 0.946905 0.00170356 -0.00791824 -0.00229657 -0.222661 0.00125 334
1 1.39851 0.795605 0.00137462 0.000591479 -3.44606e-05 0.182096 0.00125 335
1 0.642686 1.18249 0.00212333 -0.0009172 -0.00408732 0.000460445 0.00125 336
1 1.23886 1.35151 0.00216413 -0.0027447 0.00526314 -0.161023 0.00125 337
1 0.767163 0.838347 0.00137281 -0.000794889 0.00183106 0.182356 0.00125 338
1 0.24078 0.775144 0.00137377 -0.00973927 -0.00397691 0.158419 0.00125 339
1 1.41279 1.18797 0.00143896 -0.00309306 0.00177548 0.13598 0.00125 340
1 0.30897 0.572382 0.00159323 4.53646e-05 0.000272139 -0.054232 0.00125 341
1 0.270873 0.557269 0.00176233 0.00396411 0.000234655 0.142431 0.00125 342
1 1.08198 0.797176 0.00156715 -0.000426408 -0.00097238 -0.235878 0.00125 343
1 1.17365 0.46375 0.00125157 0.00714799 -0.00424825 -0.223894 0.00125 344
1 1.08028 0.710191 0.00147639 0.000283093 0.000378904 0.123274 0.00125 345
1 0.908621 1.41359 0.00134419 -0.00708619 9.25613e-05 -0.236858 0.00125 346
1 0.698972 0.778181 0.00132992 0.00231238 -0.00581317 0.193554 0.00125 347
1 1.18714 0.448756 0.00122922 -0.000360079 -0.000444733 -0.174665 0.00125 348
1 1.14851 0.238076 0.00130325 0.000105146 0.00114262 -0.233705 0.00125 349
1 1.21349 0.36808 0.00158753 0.000808916 5.76511e-05 -0.228815 0.00125 350
1 1.02571 1.39464 0.00150064 0.00196412 0.00601549 -0.193624 0.00125 351
1 0.491989 1.06329 0.00136099 -0.00204076 -0.000385041 0.162312 0.00125 352
1 0.202548 0.114942 0.00131616 -0.000303916 0.00291715 0.20369 0.00125 353
1 1.28008 0.215236 0.00231439 -0.00562033 -0.00488917 -0.0427667 0.00125 354
1 0.175372 0.597884 0.00140036 -0.00398896 -0.00129708 -0.200838 0.00125 355
1 0.682745 0.655772 0.00139714 0.00502438 0.00141316 0.178043 0.00125 356
1 1.28265 0.517361 0.00141305 0.00640382 -0.00924674 0.144768 0.00125 357
1 0.391622 1.36293 0.00147776 -0.000457146 -0.000430385 -0.0899595 0.00125 358
1 0.898604 0.634678 0.00128512 -0.00240198 -0.000812074 -0.276641 0.00125 359
1 1.35089 0.466511 0.0012833 0.00176612 0.00237932 -0.231458 0.00125 360
1 0.43817 0.857645 0.00169947 0.000312932 0.0051898 -0.0905522 0.00125 361
1 0.725786 1.026 0.00123487 -0.00346145 0.00131551 -0.248659 0.00125 362
1 0.412628 0.248832 0.00134116 -0.00253484 4.52812e-05 -0.237936 0.00125 363
1 0.670385 0.146559 0.00130337 -0.00318387 0.00299055 0.234634 0.00125 364
1 0.271363 0.765837 0.00122722 -0.000715848 -0.000597914 -0.111664 0.00125 365
1 1.33883 0.640814 0.00249028 -0.000551475 -8.2175e-05 -0.034521 0.00125 366
1 0.126087 0.202822 0.00123237 0.000650777 0.000511981 0.112357 0.00125 367
1 0.532315 1.20848 0.00134627 -0.00951246 0.00916888 0.193342 0.00125 368
1 0.60423 0.0901751 0.00156204 -0.000844781 -0.0036094 -0.236104 0.00125 369
1 0.294142 0.638347 0.00143667 0.00473642 -0.00110658 0.234888 0.00125 370
1 0.742498 0.954406 0.00211646 -4.67035e-05 -0.00289249 -0.0588275 0.00125 371
1 0.677056 0.566583 0.00142726 -8.3317e-05 -0.00351231 -0.239409 0.00125 372
1 1.07192 0.984333 0.00144055 0.00149729 0.000460807 0.168745 0.00125 373
1 0.332742 1.40115 0.00168116 -0.00403739 -0.00670196 -0.0886556 0.00125 374
1 0.822582 1.17527 0.00219119 -0.000419817 -0.00189604 -0.147567 0.00125 375
1 0.684417 1.06097 0.00131719 -0.000802041 0.00238597 -0.204754 0.00125 376
1 1.07528 0.578054 0.00129981 0.00179735 -0.00499002 0.241089 0.00125 377
1 0.326458 1.1389 0.00156829 -0.00326064 -0.00372246 0.100414 0.00125 378
1 1.15352 0.215076 0.00133327 0.00712126 -0.00340458 0.174516 0.00125 379
1 1.07173 0.482754 0.0015409 -0.00460336 -0.00145504 -0.237138 0.00125 380
1 0.292906 0.663027 0.00214839 -0.00238125 -0.0016818 -0.0231899 0.00125 381
1 0.942371 0.54364 0.00130109 -0.00185839 0.000413806 0.200784 0.00125 382
1 0.0967439 0.836176 0.002023 -0.0112464 -0.00456214 -0.186835 0.00125 383
1 0.17878 0.554314 0.00147668 -0.0120514 0.0159655 -0.197675 0.00125 384
1 0.243446 1.35177 0.00130497 0.00117216 0.00157547 0.179159 0.00125 385
1 1.13799 0.85048 0.00171037 -0.000607966 0.00508071 -0.0852352 0.00125 386
1 0.0850578 1.36151 0.00136438 0.00698173 -0.0182277 -0.0897733 0.00125 387
1 0.437458 1.11978 0.00153397 0.00163226 0.00543412 0.102843 0.00125 388
1 1.14853 0.420214 0.0013523 0.00318648 0.000105493 0.19001 0.00125 389
1 0.0905615 0.809261 0.00143101 0.00117703 0.00719654 0.217025 0.00125 390
1 1.04078 1.36589 0.00142355 0.0122629 0.00716858 0.246397 0.00125 391
1 0.535916 1.24692 0.00133145 0.00213716 0.00154315 -0.234694 0.00125 392
1 0.954577 0.723612 0.00190319 -0.000348459 -0.00184441 -0.0148399 0.00125 393
1 0.334679 0.161777 0.00152669 -0.0144924 -0.0106545 0.1098 0.00125 394
1 1.19657 0.30024 0.00142276 -0.00191282 -0.00107078 0.168279 0.00125 395
1 0.0452562 1.22237 0.00125937 0.000918405 -0.0037334 -0.230048 0.00125 396