ITEM: TIMESTEP
1000000
ITEM: NUMBER OF ATOMS
10000
ITEM: BOX BOUNDS pp pp ff
0.0000000000000000e+00 5.1839318125000000e-01
0.0000000000000000e+00 5.1839318125000000e-01
-1.2500000000000001e-02 1.2500000000000001e-02
ITEM: ATOMS type x y z vx vy vz radius id
1 0.272461 0.432671 0.00169215 -0.00845232 0.017766 0.096271 0.00125 1
1 0.486344 0.133193 0.00158501 -0.0162303 0.0149739 -0.0940397 0.00125 2
1 0.238047 0.237506 0.0013068 0.0170641 -0.0112878 -0.31241 0.00125 3
1 0.44482 0.354914 0.00182181 -0.00718242 -0.00236227 -0.199281 0.00125 4
1 0.501074 0.213708 0.00148184 0.0249926 -0.0156053 0.218848 0.00125 5
1 0.450707 0.0770616 0.0013242 -0.00754391 0.00844532 0.178922 0.00125 6
1 0.205904 0.0151312 0.00138267 -0.0188973 -0.0031345 -0.228936 0.00125 7
1 0.450363 0.208982 0.00136297 -0.00121734 -0.0255825 -0.186255 0.00125 8
1 0.0709413 0.409945 0.00140949 0.000680997 -0.0139845 0.168634 0.00125 9
1 0.273987 0.00620312 0.00155361 -0.0105073 0.00293361 0.14353 0.00125 10
1 0.219414 0.238464 0.00134152 0.0122609 0.00210255 0.245461 0.00125 11
1 0.0926211 0.413592 0.00233011 -0.00952561 1.1853e-05 -0.149225 0.00125 12
1 0.0359371 0.459993 0.00136568 0.0133681 -0.00519825 0.190957 0.00125 13
1 0.492145 0.471062 0.00136675 0.00773889 0.015915 0.160618 0.00125 14
1 0.505219 0.0431985 0.00129618 -0.0198684 -0.0541846 0.190375 0.00125 15
1 0.114122 0.45164 0.00150214 -0.00827229 -0.0157275 -0.178149 0.00125 16
1 0.0891016 0.492501 0.0022837 -0.000107583 -0.00203138 -0.0475698 0.00125 17
1 0.242192 0.219429 0.00177253 0.0119061 -0.000346884 -0.0796386 0.00125 18
1 0.448634 0.458412 0.00150789 -0.00854876 -0.00555984 0.213866 0.00125 19
1 0.0911536 0.2022 0.00153443 0.00533564 -0.00577397 -0.189948 0.00125 20
1 0.0107519 0.21319 0.00159146 -0.00091502 0.00160655 0.144727 0.00125 21
1 0.104889 0.127238 0.00127558 0.0147167 0.00787278 -0.231222 0.00125 22
1 0.160404 0.227712 0.00153488 0.000715907 -0.0151049 -0.190327 0.00125 23
1 0.218907 0.163346 0.00137581 -0.00232535 -0.0189636 0.17756 0.00125 24
1 0.504367 0.40687 0.00226706 -0.00028035 0.00931781 -0.0487002 0.00125 25
1 0.0798345 0.0958367 0.0015529 -0.00356927 0.0126129 -0.236626 0.00125 26
1 0.467789 0.0591495 0.00156253 0.0393535 -0.0113291 0.0990047 0.00125 27
1 0.245499 0.155885 0.00213373 -0.00894648 0.0204932 -0.0718453 0.00125 28
1 0.259239 0.446349 0.001267 0.0232724 -0.000459688 0.204091 0.00125 29
1 0.499583 0.4313 0.00243611 0.0257837 0.00141978 -0.0773167 0.00125 30
1 0.181829 0.429921 0.00142322 -0.00408482 0.00842907 -0.226827 0.00125 31
1 0.354932 0.188059 0.00134779 -0.00189946 -0.00882222 0.188638 0.00125 32
1 0.477462 0.109849 0.00130011 -4.59833e-05 0.00294049 -0.286015 0.00125 33
1 0.512454 0.0844002 0.00208432 -0.00159335 -0.00329549 -0.0607152 0.00125 34
1 0.0841542 0.374699 0.0024404 0.0102301 -0.0128731 -0.0378032 0.00125 35
1 0.364679 0.43292 0.00144617 -0.00972229 0.0276117 -0.237446 0.00125 36
1 0.288947 0.107653 0.00230372 -0.014421 -0.0206881 -0.0638117 0.00125 37
1 0.350038 0.39694 0.00157365 0.00266109 -0.0039294 -0.231049 0.00125 38
1 0.451508 0.420821 0.00126761 0.00017631 -0.00108619 -0.220161 0.00125 39
1 0.0642241 0.0917036 0.00139819 -0.00113425 0.00488228 0.182502 0.00125 40
1 0.195925 0.172857 0.00166977 0.00355073 -0.00276067 -0.222256 0.00125 41
1 0.371809 0.123742 0.00152095 0.00827318 0.00511911 -0.190843 0.00125 42
1 0.0730794 0.517142 0.00129208 -0.00738311 0.0210353 0.184343 0.00125 43
1 0.382999 0.357507 0.00143646 -0.0105249 0.00443448 0.23685 0.00125 44
1 0.152339 0.101302 0.00135027 0.0515575 0.0365878 0.0330295 0.00125 45
1 0.13148 0.277556 0.00156236 -0.0100745 0.0170363 0.1375 0.00125 46
1 0.342741 0.260239 0.00142546 0.00774627 -0.0110881 -0.199867 0.00125 47
1 0.00922986 0.222988 0.00159456 0.0531913 0.0330499 0.0523388 0.00125 48
1 0.383275 0.084135 0.00154455 -0.000241161 0.00356064 -0.231908 0.00125 49
1 0.503954 0.51412 0.00126904 0.0109115 -0.0251947 0.273481 0.00125 50
1 0.0824259 0.0694536 0.0016391 0.00281312 0.00352016 -0.0900063 0.00125 51
1 0.423555 0.134813 0.00203228 0.0141107 0.0128869 -0.0632024 0.00125 52
1 0.0561373 0.037589 0.00123419 0.00553353 -0.0113909 -0.146122 0.00125 53
1 0.464222 0.411948 0.00151104 0.0077144 -0.0148004 0.112146 0.00125 54
1 0.358817 0.0739677 0.00162674 -0.0105006 -0.0119351 -0.0898975 0.00125 55
1 0.207967 0.156965 0.00199539 -0.0178124 -0.00228119 -0.0658272 0.00125 56
1 0.0839948 0.0171358 0.00165518 -0.0113479 -0.031338 -0.22329 0.00125 57
1 0.168583 0.144607 0.00129665 -0.00244049 -0.0197292 -0.230947 0.00125 58
1 0.463969 0.0287652 0.00146991 -0.00966306 0.0180352 -0.229688 0.00125 59
1 0.0216931 0.0696053 0.00147033 0.014555 -0.00242024 -0.0660611 0.00125 60
1 0.376564 0.0577232 0.00185081 -0.0138914 0.00303667 -0.150212 0.00125 61
1 0.320005 0.383729 0.00181468 0.0054994 0.0062093 0.110637 0.00125 62
1 0.435147 0.0608167 0.00146439 0.0162393 -0.0111162 0.126577 0.00125 63
1 0.15676 0.284424 0.00237385 -0.0153123 0.00751203 -0.104432 0.00125 64
1 0.199426 0.126868 0.00149617 0.00505756 -0.0138267 0.0761238 0.00125 65
1 0.352465 0.120824 0.00148639 -0.0119434 0.0020944 -0.048773 0.00125 66
1 0.434356 0.32738 0.00144406 0.0120551 0.0161042 0.209872 0.00125 67
1 0.51602 0.473621 0.00150689 -0.00112557 -0.0179948 -0.229786 0.00125 68
1 0.195959 0.31833 0.00152586 -0.00849828 0.0205634 -0.237413 0.00125 69
1 0.323515 0.443035 0.00214325 0.00329477 -0.00431068 -0.0560213 0.00125 70
1 0.286703 0.120592 0.00126067 0.00175811 0.00524209 0.193021 0.00125 71
1 0.411875 0.314035 0.00151825 -0.00166618 -0.0135372 0.163785 0.00125 72
1 0.278321 0.168673 0.00148742 -0.0049975 -0.00694497 -0.237421 0.00125 73
1 0.120057 0.516177 0.00123207 0.00406592 0.00667849 0.0976458 0.00125 74
1 0.237727 0.380586 0.00143433 -0.00779309 -0.00595503 -0.300454 0.00125 75
1 0.355661 0.139484 0.00177557 0.00266338 0.00400779 0.0844229 0.00125 76
1 0.144637 0.322108 0.00139736 -0.0135252 -0.00265466 0.123601 0.00125 77
1 0.187485 0.417858 0.00124965 0.00738392 0.000225209 -0.00313788 0.00125 78
1 0.0659964 0.40221 0.00248152 -0.011593 -0.00304226 -0.0359688 0.00125 79
1 0.460306 0.367959 0.00139789 -0.00776513 0.0202618 0.249223 0.00125 80
1 0.328776 0.101352 0.00127295 -0.00117379 0.00482385 -0.315205 0.00125 81
1 0.30624 0.381243 0.0024687 0.0149953 0.00615809 -0.0618978 0.00125 82
1 0.303869 0.363004 0.00238617 -0.0191642 0.00787628 -0.0415601 0.00125 83
1 0.350958 0.0200854 0.00139346 0.0140708 0.00697 0.175178 0.00125 84
1 0.324342 0.434192 0.00236607 -0.00281768 -0.00133569 -0.0598492 0.00125 85
1 0.024282 0.382599 0.00181201 0.00352406 -0.014206 -0.256937 0.00125 86
1 0.346373 0.295606 0.00125742 -0.0163134 -0.00670211 -0.00791894 0.00125 87
1 0.0284259 0.50121 0.00143052 0.00608798 0.00612118 0.139724 0.00125 88
1 0.0162541 0.218128 0.0015045 -0.00352069 0.0346708 -0.0472303 0.00125 89
1 0.398618 0.253639 0.0014455 -0.0134293 0.00233537 0.163734 0.00125 90
1 0.241656 0.361094 0.00148498 0.0132772 -0.0350215 0.0756754 0.00125 91
1 0.126351 0.175431 0.00133093 -0.0013014 0.00667097 -0.236311 0.00125 92
1 0.2554 0.212249 0.00198503 -0.00102398 0.00944142 -0.0792598 0.00125 93
1 0.142698 0.311775 0.00128757 -0.00952203 -0.0151445 0.237347 0.00125 94
1 0.23942 0.120961 0.00218548 -0.00547079 0.031321 -0.154478 0.00125 95
1 0.493476 0.432773 0.00147666 0.00651336 0.00881199 0.0789295 0.00125 96
1 0.112538 0.375845 0.0015996 0.00129739 0.000425585 -0.233938 0.00125 97
1 0.071073 0.302731 0.00143428 0.00469128 0.0120143 0.223248 0.00125 98
1 0.387412 0.350522 0.0013548 -0.00593038 0.0188076 -0.0787726 0.00125 99
1 0.489377 0.214866 0.00140853 -0.000158185 -0.0171922 0.182936 0.00125 100
1 0.461 0.254803 0.00128378 -0.000294591 -0.00542643 0.0324537 0.00125 101
1 0.235849 0.37847 0.00164409 0.00526097 -0.0113346 -0.0933525 0.00125 102
1 0.485069 0.0823113 0.00165047 -0.0111641 -0.00377573 0.094179 0.00125 103
1 0.514162 0.435779 0.0020591 0.012623 0.0162931 -0.0753018 0.00125 104
1 0.151567 0.51747 0.00158369 -0.00471352 0.000165445 -0.182069 0.00125 105
1 0.0580261 0.293648 0.00139431 0.0127117 0.00558756 -0.275102 0.00125 106
1 0.202307 0.462037 0.0015965 0.0151997 0.0128218 -0.233138 0.00125 107
1 0.0637418 0.366605 0.0012858 -0.00971166 0.0161761 0.186162 0.00125 108
1 0.200746 0.492424 0.00200244 -0.00225399 -0.0194148 -0.0654703 0.00125 109
1 0.191385 0.144587 0.00174366 0.00880401 -0.00641949 -0.185108 0.00125 110
1 0.111477 0.0627281 0.00144439 0.00879028 -0.0143087 0.097427 0.00125 111
1 0.426842 0.137536 0.00123302 -0.011156 0.00550448 0.188744 0.00125 112
1 0.247274 0.0640416 0.00125233 -0.00811146 -0.00185396 0.203043 0.00125 113
1 0.441382 0.192621 0.00133997 0.00923365 0.00128948 0.190934 0.00125 114
1 0.171027 0.096668 0.00149214 0.00334505 -0.004534 0.207256 0.00125 115
1 0.305533 0.307803 0.0015172 0.0183355 0.00162238 -0.187862 0.00125 116
1 0.502866 0.166299 0.00142971 0.0337958 0.00917065 0.217594 0.00125 117
1 0.263391 0.181806 0.00176379 0.000296965 -0.00296998 0.147171 0.00125 118
1 0.38951 0.393196 0.0015433 -0.00351181 0.0194357 0.056771 0.00125 119
1 0.193541 0.0435306 0.00125743 0.0159339 -0.00217666 -0.231247 0.00125 120
1 0.0771053 0.262465 0.00197908 -0.0265882 -0.0045464 -0.0666269 0.00125 121
1 0.495345 0.431095 0.00124534 0.0275581 0.0197993 -0.025377 0.00125 122
1 0.339457 0.335403 0.00178834 0.00475571 0.00313463 -0.220309 0.00125 123
1 0.30116 0.489293 0.00142555 0.00902111 0.00182268 0.231866 0.00125 124
1 0.154247 0.414394 0.00150589 0.0194783 0.00111675 -0.177891 0.00125 125
1 0.119961 0.104171 0.00123118 -0.0102852 0.00391302 -0.0655128 0.00125 126
1 0.4953 0.0422435 0.00124716 -0.00230517 0.00892341 -0.0594735 0.00125 127
1 0.478134 0.194085 0.001894 0.0128172 0.0182962 -0.146706 0.00125 128
1 0.450428 0.158709 0.00135462 0.00517999 0.0175873 -0.247075 0.00125 129
1 0.00688596 0.128697 0.00123944 0.00130474 0.0113914 -0.199703 0.00125 130
1 0.370742 0.15171 0.0023627 0.00366167 -0.0773701 -0.00973811 0.00125 131
1 0.438012 0.291827 0.00140174 -0.00143823 -0.0138349 0.15177 0.00125 132
1 0.493744 0.436389 0.00131907 0.0112738 -0.00160827 -0.194998 0.00125 133
1 0.248257 0.172759 0.00214867 -0.00550889 0.00869344 -0.0215429 0.00125 134
1 0.435745 0.247317 0.00128805 -0.013292 -0.00518696 -0.316941 0.00125 135
1 0.299479 0.189039 0.00139637 0.00283473 0.000865255 -0.245198 0.00125 136
1 0.0948098 0.410565 0.00141235 0.00228767 0.018709 -0.231638 0.00125 137
1 0.24072 0.506598 0.00149818 -0.0115305 0.0179237 0.117566 0.00125 138
1 0.474245 0.176964 0.00147124 0.00321781 0.0167945 0.249877 0.00125 139
1 0.451821 0.275633 0.00127461 0.00677008 -0.00178808 -0.231427 0.00125 140
1 0.392038 0.426473 0.00163839 -0.00686058 -0.00774198 0.0787087 0.00125 141
1 0.266816 0.0771118 0.0013431 0.00211652 0.0363055 -0.229167 0.00125 142
1 0.0653696 0.219795 0.00158298 0.0019602 -0.0169371 -0.181118 0.00125 143
1 0.0800344 0.463982 0.00133207 0.0153327 -0.0174508 -0.239638 0.00125 144
1 0.465082 0.451026 0.00124126 0.0115013 0.00353825 0.201226 0.00125 145
1 0.466143 0.505636 0.0012815 -0.00578298 -0.00434888 -0.232149 0.00125 146
1 0.0571623 0.0327455 0.00132586 0.0169637 0.0167624 0.180983 0.00125 147
1 0.2049 0.181682 0.00130565 -0.00649623 0.00430091 -0.224554 0.00125 148
1 0.442746 0.255736 0.00135025 -0.0086628 -0.00212608 0.237392 0.00125 149
1 0.0173937 0.390805 0.00133343 0.000981009 -0.00483035 0.175141 0.00125 150
1 0.341972 0.470734 0.0014855 -0.00699848 0.0355891 -0.174718 0.00125 151
1 0.305417 0.227963 0.00178689 0.000496455 0.00199239 -0.214305 0.00125 152
1 0.267888 0.174062 0.00140143 -0.00369488 -0.002787 -0.307873 0.00125 153
1 0.438995 0.0274054 0.00139624 -0.0278681 -0.0134842 0.176171 0.00125 154
1 0.268112 0.143907 0.00129874 -0.00115195 0.0238628 -0.0898312 0.00125 155
1 0.316784 0.28096 0.00131723 0.00180501 0.0280727 0.235534 0.00125 156
1 0.424366 0.0521741 0.00145723 -0.00705118 0.00226208 0.143098 0.00125 157
1 0.324493 0.24152 0.00153203 -0.0203558 -0.0254835 0.124941 0.00125 158
1 0.00396074 0.141704 0.00175148 0.00141653 0.00588822 -0.221998 0.00125 159
1 0.38373 0.254242 0.00155845 -0.000146526 0.00597019 0.098622 0.00125 160
1 0.447264 0.445059 0.00163286 -0.00297112 0.0176751 0.0629064 0.00125 161
1 0.335955 0.447179 0.00127738 -0.00307908 0.00435489 0.1923 0.00125 162
1 0.33966 0.406168 0.00137838 -0.00683283 -0.00790343 0.181034 0.00125 163
1 0.196503 0.471727 0.00132705 -0.0156836 -0.000957006 -0.243679 0.00125 164
1 0.288366 0.459548 0.00138158 0.011678 0.0262332 -0.20274 0.00125 165
1 0.362862 0.172203 0.00134728 -0.0164847 -6.6757e-05 -0.236851 0.00125 166
1 0.191682 0.3936 0.00140083 0.000480666 -0.0053853 0.174857 0.00125 167
1 0.14345 0.0778157 0.00160337 -0.00657056 -0.00816034 -0.233724 0.00125 168
1 0.289104 0.468919 0.00218145 -0.00786337 -0.0209889 -0.0541575 0.00125 169
1 0.246047 0.450914 0.00130157 0.00732687 -0.0148159 0.156686 0.00125 170
1 0.42534 0.102375 0.00131494 -0.021765 -0.000924619 -0.234673 0.00125 171
1 0.218773 0.29899 0.00142645 0.00347608 -0.00463388 -0.236979 0.00125 172
1 0.241744 0.0885325 0.00175163 0.0146208 0.011923 0.0816232 0.00125 173
1 0.392913 0.481716 0.00132681 0.00122756 -0.00383223 -0.291081 0.00125 174
1 0.00631268 0.00551165 0.00126025 -0.00659728 0.0104611 -0.236352 0.00125 175
1 0.258094 0.20742 0.00126135 0.0141168 -0.00166817 -0.233316 0.00125 176
1 0.169213 0.207939 0.00139722 0.0374488 -0.0107469 0.2173 0.00125 177
1 0.0113915 0.497388 0.00143962 0.0103253 0.00695226 -0.199229 0.00125 178
1 0.485348 0.403857 0.00123895 0.00189494 -0.016969 -0.196857 0.00125 179
1 0.149792 0.463983 0.00155909 -0.00658074 -0.0117287 0.0993447 0.00125 180
1 0.325555 0.346947 0.00169118 0.00813828 0.0135105 0.108209 0.00125 181
1 0.118603 0.220898 0.00135876 -0.0117854 0.000765837 0.191696 0.00125 182
1 0.214555 0.287029 0.00146687 -0.00214427 -0.0157311 0.128759 0.00125 183
1 0.360734 0.339541 0.00186992 0.00315551 -0.0107818 -0.0299071 0.00125 184
1 0.154129 0.286933 0.00125906 0.00406647 -0.0108166 0.242918 0.00125 185
1 0.0460369 0.205548 0.00124777 0.00151352 0.00634085 0.281952 0.00125 186
1 0.302955 0.150343 0.00139835 0.0125241 -0.0173364 0.225127 0.00125 187
1 0.451375 0.292614 0.00161578 0.00642821 0.002909 -0.181216 0.00125 188
1 0.333953 0.166637 0.00163932 -0.0107634 0.00705028 -0.0920113 0.00125 189
1 0.124865 0.245341 0.00145751 -0.0175515 -0.00592919 0.161198 0.00125 190
1 0.110216 0.408862 0.00144756 -0.00516294 -0.0057456 -0.263669 0.00125 191
1 0.141344 0.212133 0.00174932 -0.00352897 0.0100621 0.119308 0.00125 192
1 0.289696 0.444129 0.00152687 0.012044 0.00354781 -0.237744 0.00125 193
1 0.490884 0.143555 0.00174123 0.00043484 -0.0178198 -0.222885 0.00125 194
1 0.0331825 0.380099 0.00251646 -0.0043992 0.0021843 -0.0518864 0.00125 195
1 0.150916 0.477546 0.00209319 -0.0109066 0.0770404 -0.0964822 0.00125 196
1 0.282732 0.380306 0.00236438 0.0162682 0.00558523 -0.0606448 0.00125 197
1 0.27536 0.156962 0.00248864 -0.00641311 -0.0151482 -0.0761063 0.00125 198
1 0.161981 0.35639 0.0014115 0.00179291 0.00820495 -0.227657 0.00125 199
1 0.119531 0.205503 0.00132782 -0.00611012 0.00462321 -0.235596 0.00125 200
1 0.209273 0.0109969 0.00180273 0.0150675 -0.0323102 -0.077048 0.00125 201
1 0.421147 0.223873 0.00125803 -0.00436541 -0.00121581 0.0136024 0.00125 202
1 0.16159 0.380561 0.00195977 -0.00723874 0.00293128 -0.0290339 0.00125 203
1 0.252171 0.26928 0.00207605 -0.00114717 0.0031922 -0.0602603 0.00125 204
1 0.0463649 0.0751349 0.00138688 0.00140498 -0.00189337 -0.0895155 0.00125 205
1 0.217821 0.315774 0.00249739 -0.000145976 0.00557082 -0.0352793 0.00125 206
1 0.355585 0.251354 0.00146899 0.0363512 0.0196367 -0.0926236 0.00125 207
1 0.243987 0.034661 0.00127013 0.00814116 -0.00716758 0.191871 0.00125 208
1 0.259501 0.333803 0.00176793 0.000817672 -0.0036711 -0.030583 0.00125 209
1 0.208968 0.365488 0.00140782 0.0122985 0.0117649 -0.304237 0.00125 210
1 0.482487 0.0947596 0.00123608 -0.00670825 -0.0155787 0.179052 0.00125 211
1 0.0961167 0.0739329 0.00150488 0.00612439 -0.00470724 0.212331 0.00125 212
1 0.223929 0.215856 0.00126394 0.00802888 0.0288348 0.275279 0.00125 213
1 0.167476 0.119278 0.00236538 -0.00246921 -0.0129452 0.028297 0.00125 214
1 0.493165 0.392941 0.00229438 -0.0126615 0.0312251 -0.0420499 0.00125 215
1 0.394755 0.187562 0.00126969 -0.00590233 -0.000494719 0.165275 0.00125 216
1 0.0194359 0.42879 0.00161325 -0.0127792 -0.0153622 -0.227856 0.00125 217
1 0.260706 0.0906081 0.00134867 -0.00942814 -0.016786 -0.188364 0.00125 218
1 0.509904 0.435823 0.00188519 0.00763099 0.00177577 -0.0825522 0.00125 219
1 0.206293 0.113047 0.00148447 0.0045724 0.00332076 0.207076 0.00125 220
1 0.417031 0.271826 0.00129873 -0.0169585 -0.0106293 -0.233403 0.00125 221
1 0.312009 0.516311 0.00136544 0.00792724 -0.0070784 -0.235522 0.00125 222
1 0.429408 0.292746 0.00142478 0.000954579 0.015833 -0.239644 0.00125 223
1 0.0371003 0.107308 0.0014273 0.000313985 -0.00223186 0.173123 0.00125 224
1 0.467678 0.240878 0.00152229 -0.00539496 0.0160414 -0.104995 0.00125 225
1 0.143089 0.0160748 0.00132736 -0.00620529 -0.00999207 -0.23578 0.00125 226
1 0.172346 0.385755 0.00186886 -0.00960185 -0.0134241 -0.208668 0.00125 227
1 0.0434976 0.323264 0.00201482 0.0162505 -0.00637843 -0.0644058 0.00125 228
1 0.358051 0.40091 0.00197045 -0.00388706 0.00262153 -0.195124 0.00125 229
1 0.273051 0.127036 0.0015754 0.00174261 0.00572639 0.0963981 0.00125 230
1 0.0904882 0.47193 0.00132303 -0.00150685 -0.0114912 -0.239594 0.00125 231
1 0.430061 0.471667 0.00128824 -0.00354531 -0.017032 -0.234154 0.00125 232
1 0.308266 0.25757 0.00205811 -0.0155945 -0.00751547 -0.181199 0.00125 233
1 0.211702 0.470912 0.00125261 0.0024391 0.000344447 0.198579 0.00125 234
1 0.0675473 0.498229 0.00131044 -0.00523969 0.0178332 -0.236991 0.00125 235
1 0.484288 0.296887 0.00153237 0.0131492 -0.00403602 0.104243 0.00125 236
1 0.276193 0.349342 0.00156176 0.00568611 -0.00675668 -0.235916 0.00125 237
1 0.195999 0.339044 0.00132941 0.00297851 -0.00786574 0.172951 0.00125 238
1 0.108238 0.161534 0.00203573 0.00596942 0.0224096 -0.0855243 0.00125 239
1 0.0187907 0.497526 0.00189891 0.0163417 0.00918511 -0.0725316 0.00125 240
1 0.357025 0.495527 0.00123081 0.00327223 0.0616202 -0.0244811 0.00125 241
1 0.0926551 0.455273 0.00163699 0.0102549 0.00351526 0.0536247 0.00125 242
1 0.493319 0.500704 0.00142404 -0.0187653 0.00181144 -0.226395 0.00125 243
1 0.351525 0.182807 0.00161686 -0.00094437 -0.0152191 -0.0368915 0.00125 244
1 0.248156 0.45842 0.00134326 0.000263065 3.68604e-05 -0.274146 0.00125 245
1 0.43014 0.00544266 0.00129509 -0.023771 0.0146647 0.0780929 0.00125 246
1 0.445807 0.0501747 0.00162953 -0.00407947 -0.00589063 -0.0619504 0.00125 247
1 0.306153 0.383905 0.00131872 0.0475969 -0.0114907 -0.0881279 0.00125 248
1 0.357412 0.148858 0.00165714 0.035936 -0.000633386 0.140251 0.00125 249
1 0.375805 0.361854 0.00164593 -7.74845e-05 -0.0109687 -0.172671 0.00125 250
1 0.510145 0.505921 0.001262 -0.0122822 -0.00532054 -0.302731 0.00125 251
1 0.505232 0.425633 0.00128291 0.00880392 -0.00912389 -0.224103 0.00125 252
1 0.176665 0.367956 0.0016188 0.00418813 -0.0083056 0.104059 0.00125 253
1 0.308648 0.243196 0.00153696 -0.0126445 -0.0105575 -0.237293 0.00125 254
1 0.171331 0.388553 0.00136397 -0.00862428 0.0127988 -0.236829 0.00125 255
1 0.0372092 0.282711 0.00146572 -0.00571905 -0.00607845 -0.248055 0.00125 256
1 0.383675 0.234659 0.0024352 0.00492589 -0.00451284 -0.0384489 0.00125 257
1 0.196357 0.0808668 0.00159779 -0.0134025 0.0134733 0.0889089 0.00125 258
1 0.0883803 0.163653 0.00149944 -0.0309847 0.0161548 0.109287 0.00125 259
1 0.261527 0.158905 0.00142398 -0.0268384 0.00590147 -0.113969 0.00125 260
1 0.411663 0.135243 0.00156309 -0.0308346 -0.0088037 -0.19801 0.00125 261
1 0.304423 0.213222 0.00157634 0.0149789 0.000307314 -0.190281 0.00125 262
1 0.48315 0.213564 0.00151077 -0.0154811 0.0149217 0.112287 0.00125 263
1 0.174075 0.030588 0.00193932 -0.0106887 -0.00100287 -0.0627562 0.00125 264
1 0.417248 0.486478 0.00128744 0.00444459 -0.0195583 0.185709 0.00125 265
1 0.379805 0.465051 0.00127858 0.00103247 0.00242046 -0.229671 0.00125 266
1 0.315035 0.325358 0.00182847 -0.00591146 -0.00872519 -0.0757235 0.00125 267
1 0.492811 0.154186 0.00192336 -0.0401864 -0.0154612 -0.0186685 0.00125 268
1 0.342403 0.367935 0.00149096 0.0119394 0.00451918 0.217722 0.00125 269
1 0.160916 0.263293 0.00135873 0.0170276 8.40008e-05 -0.237712 0.00125 270
1 0.364767 0.233615 0.00128251 0.0113484 0.0141096 -0.102315 0.00125 271
1 0.233263 0.39323 0.00165576 -0.0205438 0.00618868 -0.281171 0.00125 272
1 0.164087 0.454747 0.00129123 0.00935681 0.0162459 0.203273 0.00125 273
1 0.463541 0.131565 0.0014857 0.00868774 0.0061182 -0.240153 0.00125 274
1 0.0152466 0.211442 0.00168815 -0.00555762 0.007291 -0.0873788 0.00125 275
1 0.106006 0.116163 0.00145248 0.00388073 0.0264746 0.226984 0.00125 276
1 0.469228 0.384796 0.00226787 0.00599774 -0.00690867 -0.167821 0.00125 277
1 0.444529 0.0523776 0.00134867 -0.000284676 0.000718454 -0.0842691 0.00125 278
1 0.0870574 0.238154 0.00129828 0.0205229 0.00270569 -0.246697 0.00125 279
1 0.364672 0.289286 0.00169157 -0.0043417 -0.0054202 0.0621433 0.00125 280
1 0.0805965 0.0841124 0.00129615 0.0142887 -0.0150974 0.243556 0.00125 281
1 0.168591 0.456354 0.00131717 -0.00281938 0.0033744 0.17632 0.00125 282
1 0.0655322 0.188424 0.00158139 -0.00128981 -0.00535184 0.0836995 0.00125 283
1 0.242143 0.157638 0.00131843 0.00755262 0.0150392 -0.234972 0.00125 284
1 0.00898094 0.409185 0.00152548 -0.00273438 0.00912202 -0.239166 0.00125 285
1 0.229297 0.480642 0.00143238 0.00991902 0.0139873 0.211455 0.00125 286
1 0.0575961 0.475328 0.00212938 -0.0248925 0.00540268 -0.0573694 0.00125 287
1 0.516606 0.382195 0.0013279 0.00841615 -0.00667096 0.230396 0.00125 288
1 0.351752 0.187223 0.00153229 -0.0176925 0.0178595 -0.0922441 0.00125 289
1 0.431144 0.104432 0.00149891 -0.0129502 0.013886 0.119138 0.00125 290
1 0.32818 0.388697 0.00180214 0.0122653 -0.00957992 -0.216338 0.00125 291
1 0.159915 0.0058635 0.00148549 0.0050031 0.0100674 0.118037 0.00125 292
1 0.0453374 0.201971 0.00126035 0.0170889 -0.0150163 -0.230471 0.00125 293
1 0.506506 0.0403951 0.00151664 -0.0102096 0.00730372 0.107695 0.00125 294
1 0.458283 0.0112694 0.00177722 0.00121747 0.00707502 -0.0593128 0.00125 295
1 0.16797 0.421674 0.00138814 -0.00359256 -0.00885447 -0.229725 0.00125 296
1 0.136226 0.0608719 0.00173558 -0.00726324 -0.00112271 -0.223843 0.00125 297
1 0.0651189 0.0194317 0.00127309 0.0178431 -0.0128673 0.185823 0.00125 298
1 0.337292 0.403141 0.00130401 0.0333407 -0.0154326 0.240443 0.00125 299
1 0.314879 0.279223 0.0013012 -0.0161643 0.0125705 -0.215202 0.00125 300
1 0.464104 0.498487 0.00133329 0.0021728 0.0161411 -0.233745 0.00125 301
1 0.152741 0.112055 0.00163626 -0.00225453 -0.000905803 0.210136 0.00125 302
1 0.292442 0.265954 0.0012655 0.00354972 0.0120169 -0.232854 0.00125 303
1 0.476497 0.0662509 0.00153572 -0.0275897 0.0292296 -0.229664 0.00125 304
1 0.193291 0.505188 0.00130691 -0.00227584 0.00576464 -0.233233 0.00125 305
1 0.301835 0.138122 0.00194699 -0.0159483 -0.0143398 -0.235911 0.00125 306
1 0.0844269 0.308413 0.00211432 0.0198525 -0.0325969 -0.0680747 0.00125 307
1 0.233817 0.409689 0.00130613 0.00261747 -0.000884641 0.176458 0.00125 308
1 0.23563 0.314839 0.00122471 -4.68967e-05 -0.00710066 -0.0804503 0.00125 309
1 0.368719 0.357939 0.00156728 0.00601772 0.0187541 -0.29274 0.00125 310
1 0.0995152 0.447449 0.00183695 -0.013845 0.0149871 -0.0806376 0.00125 311
1 0.398634 0.456085 0.00127842 -0.000804709 -0.0087055 0.206609 0.00125 312
1 0.34768 0.0188224 0.00141266 0.0032913 0.00120673 0.171677 0.00125 313
1 0.34327 0.322551 0.0019612 0.0209119 -0.0119803 -0.0381041 0.00125 314
1 0.0166946 0.237943 0.00179128 0.00334151 -0.00402644 -0.0789553 0.00125 315
1 0.251507 0.337077 0.00134661 6.63607e-05 -0.00103194 0.136718 0.00125 316
1 0.249466 0.493382 0.00125569 -0.0342171 -0.00389505 0.176179 0.00125 317
1 0.427665 0.478889 0.00142513 -0.0049584 0.000522295 -0.187303 0.00125 318
1 0.50121 0.151999 0.00138766 -0.00936662 0.0149074 0.18041 0.00125 319
1 0.365643 0.364155 0.00143688 -0.00805099 0.0198028 0.151555 0.00125 320
1 0.247889 0.123654 0.00236069 0.0176994 0.0201669 -0.0607488 0.00125 321
1 0.147037 0.457729 0.00135455 -0.0140435 0.00360848 -0.236892 0.00125 322
1 0.0610461 0.299677 0.00168509 0.000627578 0.00643078 -0.228012 0.00125 323
1 0.46932 0.244819 0.00139199 -0.00162885 -0.00268521 0.154707 0.00125 324
1 0.0266396 0.156399 0.00157539 -0.000310374 0.00288238 -0.0952964 0.00125 325
1 0.132408 0.119425 0.00135109 -0.00310614 -0.0214998 0.180278 0.00125 326
1 0.422415 0.220866 0.00145241 0.0204274 -0.00478644 0.229117 0.00125 327
1 0.436015 0.218009 0.00142533 -0.00581946 0.00406899 -0.23974 0.00125 328
1 0.254028 0.0499933 0.00159852 0.00338004 0.0175554 -0.1939 0.00125 329
1 0.362082 0.000614095 0.00128307 0.00211735 -0.00712358 -0.232034 0.00125 330
1 0.345086 0.0591463 0.00138334 -0.0222379 -0.00647546 0.176831 0.00125 331
1 0.132523 0.139632 0.00145636 0.00917817 0.000673151 0.131331 0.00125 332
1 0.237801 0.368559 0.00201128 -0.0172883 0.0224658 -0.0685027 0.00125 333
1 0.220209 0.513608 0.00129052 -0.00390367 0.0104048 0.185531 0.00125 334
1 0.286886 0.14862 0.00130226 0.00958833 -0.0298436 0.208694 0.00125 335
1 0.276205 0.406273 0.00128299 0.00517154 -0.0111841 0.167427 0.00125 336
1 0.143972 0.133909 0.00123781 -0.00118451 -0.0138559 -0.190962 0.00125 337
1 0.485076 0.188247 0.00215317 -0.00766116 0.0101459 -0.171021 0.00125 338
1 0.142607 0.470603 0.00193903 0.0177354 0.0198754 -0.182483 0.00125 339
1 0.0872576 0.222995 0.00174638 0.0174247 0.0114006 -0.0605537 0.00125 340
1 0.453549 0.396033 0.00206112 -0.00406059 -0.00433186 -0.0633616 0.00125 341
1 0.0696267 0.223946 0.00157961 0.00964419 -0.00166275 -0.229727 0.00125 342
1 0.3559 0.0432877 0.00136952 -0.014971 0.0229961 -0.222725 0.00125 343
1 0.325765 0.280088 0.00163113 0.00657127 -0.00197231 0.0910738 0.00125 344
1 0.0205598 0.282729 0.00144595 0.00306199 0.00868888 0.137306 0.00125 345
1 0.0357882 0.357214 0.00174188 -0.00444814 -0.00282041 0.111253 0.00125 346
1 0.0181216 0.230457 0.00164449 0.00675055 0.000939093 0.0556272 0.00125 347
1 0.334738 0.514679 0.0016519 -0.0134753 0.0138908 -0.0951273 0.00125 348
1 0.0749272 0.36585 0.00157164 0.00188695 0.00377826 0.0962039 0.00125 349
1 0.487198 0.0721932 0.00194788 -0.00173412 -0.0138332 -0.0690803 0.00125 350
1 0.399866 0.180033 0.0017168 -0.00977129 -0.00363975 0.0919835 0.00125 351
1 0.112969 0.197387 0.0016182 0.00548353 -0.0137735 -0.0824473 0.00125 352
1 0.30282 0.424947 0.00139733 -0.00791805 -0.0128815 0.173165 0.00125 353
1 0.251288 0.0538995 0.00138142 -0.0270031 0.0226555 -0.0558648 0.00125 354
1 0.175837 0.495249 0.00209133 0.00170837 -0.0145469 -0.0599091 0.00125 355
1 0.444255 0.426941 0.00153717 0.00761426 0.00441595 0.103529 0.00125 356
1 0.132061 0.317086 0.00157987 0.016582 0.00467955 -0.234246 0.00125 357
1 0.390271 0.2606 0.00153188 0.0104802 -0.0150471 -0.236697 0.00125 358
1 0.0608935 0.506335 0.00125942 -0.00369392 0.00534464 0.197353 0.00125 359
1 0.0115611 0.136512 0.00156599 0.00174854 0.00753323 -0.176311 0.00125 360
1 0.328745 0.200634 0.00163126 -3.19529e-05 0.0120329 -0.0917595 0.00125 361
1 0.442307 0.0133792 0.00175544 0.00705518 0.0193334 -0.0754096 0.00125 362
1 0.492772 0.241091 0.0021691 -0.00756842 0.00725256 -0.159733 0.00125 363
1 0.493075 0.0525532 0.00147117 0.00629918 0.00201577 0.221138 0.00125 364
1 0.14592 0.122531 0.00135466 0.00879869 -0.000379307 0.157561 0.00125 365
1 0.0406535 0.382903 0.00164593 -0.00478002 -0.0097192 0.0551345 0.00125 366
1 0.232386 0.30077 0.00132979 -0.00475661 -0.023562 -0.219953 0.00125 367
1 0.310656 0.0585972 0.00139663 0.0576416 0.00616749 -0.200201 0.00125 368
1 0.166858 0.00732678 0.00136798 -0.0308187 0.0102045 0.238512 0.00125 369
1 0.312722 0.228265 0.00129576 0.0220464 -0.01628 -0.308139 0.00125 370
1 0.471096 0.316346 0.00135935 0.00699747 0.0140144 -0.204558 0.00125 371
1 0.378607 0.385323 0.00169619 -0.0143939 0.0151924 -0.0302151 0.00125 372
1 0.26117 0.265166 0.00132297 0.00857011 0.011628 -0.236729 0.00125 373
1 0.0716521 0.0316563 0.00181633 -0.0111462 -0.00738164 -0.210465 0.00125 374
1 0.021772 0.264896 0.00138837 -0.00260817 -0.00661846 0.22206 0.00125 375
1 0.263933 0.075403 0.00158237 -0.0239801 0.0188853 -0.184417 0.00125 376
1 0.344835 0.335578 0.00189234 0.015421 0.00615479 -0.148269 0.00125 377
1 0.0108065 0.360109 0.00138068 -0.0094674 0.00886157 0.22295 0.00125 378
1 0.0717774 0.413338 0.0012775 0.0041918 0.0135567 0.23703 0.00125 379
1 0.49819 0.182096 0.00148993 -0.0012497 0.0073813 -0.239672 0.00125 380
1 0.0940593 0.507391 0.00124479 0.0238352 -0.0137181 0.200916 0.00125 381
1 0.178841 0.0893918 0.00158841 -0.0039363 -0.00502094 -0.234167 0.00125 382
1 0.165257 0.205785 0.0013311 0.0206711 -0.0081291 0.171659 0.00125 383
1 0.517066 0.00680482 0.0013469 -0.00925613 -0.00113711 -0.203224 0.00125 384
1 0.471082 0.0260889 0.00156678 -0.000621703 -0.00791277 0.0985806 0.00125 385
1 0.351619 0.16074 0.00223561 0.000357144 -0.0024849 -0.140845 0.00125 386
1 0.0766302 0.0029614 0.00123035 0.00802014 -0.0151989 0.0174819 0.00125 387
1 0.325403 0.439334 0.00147192 0.0179396 0.00534088 0.125931 0.00125 388
1 0.434904 0.297317 0.00126457 0.0220026 -0.0101887 0.198046 0.00125 389
1 0.117747 0.0377033 0.00195059 -0.0247992 0.0119041 -0.200338 0.00125 390
1 0.0228065 0.297737 0.00134177 0.00420436 0.00169021 -0.240629 0.00125 391
1 0.174758 0.223496 0.00144646 -0.0072961 -0.00787393 -0.241143 0.00125 392
1 0.0994321 0.123265 0.00136733 -0.00227493 -0.0047151 0.164669 0.00125 393
1 0.371437 0.257244 0.00153845 0.0101397 -0.00418113 0.102886 0.00125 394
1 0.0649003 0.20197 0.00156587 0.00190506 0.0114703 -0.191451 0.00125 395
1 0.230447 0.0869391 0.00164274 0.00701537 -0.0266553 -0.0897943 0.00125 396
1 0.075954 0.126202 0.00134705 0.0152632 -0.0113187 -0.235978 0.00125 397
1 0.142584 0.331923 0.00163973 -0.0140278 -0.018803 -0.0899982 0.00125 398