ITEM: TIMESTEP
1000000
ITEM: NUMBER OF ATOMS
10000
ITEM: BOX BOUNDS pp pp ff
0.0000000000000000e+00 4.6344826374999998e-01
0.0000000000000000e+00 4.6344826374999998e-01
-1.2500000000000001e-02 1.2500000000000001e-02
ITEM: ATOMS type x y z vx vy vz radius id
1 0.129635 0.184975 0.00152158 0.0300329 0.0197397 0.195067 0.00125 1
1 0.180285 0.412504 0.0015556 -0.00546255 -0.0236065 -0.193469 0.00125 2
1 0.0487038 0.308489 0.00129477 0.00338012 -0.00380752 0.235827 0.00125 3
1 0.0872734 0.234918 0.00140909 0.00936153 0.00482383 0.172581 0.00125 4
1 0.243168 0.0247687 0.00123232 0.00531103 0.00224774 0.13855 0.00125 5
1 0.223308 0.127559 0.0023272 -0.0143098 -0.0193888 -0.0427729 0.00125 6
1 0.230175 0.0990793 0.00150343 -0.00577494 -0.0069956 0.222149 0.00125 7
1 0.288696 0.442243 0.00137577 0.0122692 0.00216531 0.254397 0.00125 8
1 0.357323 0.151622 0.00200191 -0.0169905 -0.0319835 -0.0595775 0.00125 9
1 0.441742 0.309243 0.00127197 -0.0106285 0.00278522 -0.301496 0.00125 10
1 0.137818 0.16603 0.0021684 -0.0520977 -0.025159 -0.171349 0.00125 11
1 0.13191 0.371349 0.00138379 -0.00910225 0.0190145 0.221722 0.00125 12
1 0.298189 0.448424 0.00173927 -0.00190852 0.0174409 -0.224782 0.00125 13
1 0.410419 0.364591 0.00165265 0.0080683 0.0124252 -0.210523 0.00125 14
1 0.152112 0.305158 0.00143297 -0.00487959 -0.0134049 0.137316 0.00125 15
1 0.21165 0.159313 0.00122983 0.00161095 0.00236031 0.0748241 0.00125 16
1 0.111219 0.285254 0.00123664 0.000920714 0.0027934 -0.174546 0.00125 17
1 0.0714954 0.368918 0.00130867 0.0180937 -0.0100753 0.233254 0.00125 18
1 0.345771 0.051405 0.00128407 -0.00738727 0.0300192 -0.205658 0.00125 19
1 0.218301 0.0607696 0.00141804 -0.00183474 0.00502993 0.142711 0.00125 20
1 0.0848298 0.233866 0.00151644 -0.000182336 0.0069514 0.132059 0.00125 21
1 0.303534 0.17869 0.00126035 0.00949353 -0.00352119 0.256147 0.00125 22
1 0.241954 0.355537 0.00161276 0.000637422 -0.00435966 -0.236485 0.00125 23
1 0.0579078 0.371642 0.00135932 0.015531 0.0481278 -0.253014 0.00125 24
1 0.279815 0.443758 0.00137329 -0.00457029 0.00211725 0.220853 0.00125 25
1 0.420899 0.0800955 0.00176296 -0.00266564 0.00391854 -0.224252 0.00125 26
1 0.311441 0.372979 0.00210058 0.00209625 0.00534152 -0.0585213 0.00125 27
1 0.13656 0.386684 0.00153448 6.5575e-05 -0.0110596 0.138822 0.00125 28
1 0.037947 0.171384 0.00138167 0.00896836 0.00123224 -0.228227 0.00125 29
1 0.373685 0.451241 0.00158277 -0.0161208 -0.00428243 -0.228787 0.00125 30
1 0.107281 0.331577 0.00127275 -0.00392171 -0.0121885 0.191657 0.00125 31
1 0.356369 0.44609 0.00141638 0.00519341 0.0121913 -0.222865 0.00125 32
1 0.436925 0.379312 0.00144459 -0.00724321 0.0222927 -0.232135 0.00125 33
1 0.270338 0.420721 0.00151407 0.0068353 0.0102009 0.212198 0.00125 34
1 0.0158822 0.259555 0.0014823 -0.0203366 -0.0118209 -0.243188 0.00125 35
1 0.211192 0.208551 0.00156752 -0.00760582 0.00467236 0.137762 0.00125 36
1 0.0542725 0.029519 0.00134534 0.012244 0.00470207 -0.234642 0.00125 37
1 0.454301 0.446128 0.00154933 -0.00439101 0.000786981 0.101137 0.00125 38
1 0.444082 0.139786 0.00142966 0.00244871 -0.0018479 -0.296885 0.00125 39
1 0.0728599 0.0994025 0.00163431 -0.0272674 0.0143419 -0.0974769 0.00125 40
1 0.163416 0.402157 0.00151347 0.0105008 0.0256052 -0.237195 0.00125 41
1 0.186092 0.40391 0.0015448 -0.0239451 0.00333212 -0.189397 0.00125 42
1 0.0136026 0.0941765 0.00151186 1.93571e-05 -0.0201078 0.0665579 0.00125 43
1 0.0681233 0.0306287 0.00221812 -0.017279 0.0105531 0.0165668 0.00125 44
1 0.169675 0.393642 0.00129158 0.0410654 -0.0026156 -0.254612 0.00125 45
1 0.240968 0.038058 0.00123906 -0.0150945 -0.00734534 -0.197722 0.00125 46
1 0.201316 0.417405 0.00236765 -0.000904108 -0.00258697 -0.039307 0.00125 47
1 0.349706 0.299152 0.0013824 -0.010422 -0.00313823 -0.23694 0.00125 48
1 0.432953 0.230547 0.00136676 -0.0153656 -0.00683837 0.18884 0.00125 49
1 0.43899 0.396947 0.00130033 -0.0817301 0.0305123 0.0916503 0.00125 50
1 0.231983 0.371103 0.00123145 -0.00915957 -0.00530518 0.12094 0.00125 51
1 0.0666161 0.00333163 0.00148337 0.0109943 0.0101806 0.211083 0.00125 52
1 0.353202 0.0254195 0.00182283 -0.0182444 0.00704032 -0.162991 0.00125 53
1 0.116836 0.151748 0.00198277 0.00988214 -0.0910108 -0.114411 0.00125 54
1 0.251959 0.153054 0.00125103 0.00557893 0.0151811 0.196645 0.00125 55
1 0.160076 0.1275 0.00159063 -0.00593864 -0.00513508 0.0909581 0.00125 56
1 0.31772 0.253706 0.0021762 -0.00075542 0.00549855 0.00374018 0.00125 57
1 0.128452 0.136545 0.00172076 0.0233833 0.0173274 -0.0843082 0.00125 58
1 0.311364 0.0817593 0.00189067 -0.00954028 -0.00297343 -0.0722333 0.00125 59
1 0.42784 0.31573 0.00128246 0.0307931 -0.0118645 -0.22656 0.00125 60
1 0.325611 0.426263 0.00171759 0.00550789 0.0344272 0.104578 0.00125 61
1 0.223979 0.352242 0.00141137 0.0132924 -0.00213462 -0.176628 0.00125 62
1 0.372043 0.0686673 0.00144005 0.0141074 -0.00909017 0.139286 0.00125 63
1 0.0264849 0.256746 0.00124998 0.0576102 0.0138673 -0.19057 0.00125 64
1 0.194898 0.176157 0.00151443 0.00960459 -0.00777362 -0.232861 0.00125 65
1 0.32729 0.14488 0.00129957 0.0700887 -0.0285169 -0.0682608 0.00125 66
1 0.138179 0.288468 0.00226235 -0.00872817 -0.00825619 -0.0446974 0.00125 67
1 0.0206827 0.249301 0.00126065 0.0114688 -0.0218556 0.197544 0.00125 68
1 0.190963 0.106895 0.00195611 -0.00590513 -0.0140629 -0.0838417 0.00125 69
1 0.422417 0.237859 0.00144803 -0.0410362 -0.00926119 0.153105 0.00125 70
1 0.136172 0.448005 0.00149884 -0.00921044 -1.41814e-05 -0.23199 0.00125 71
1 0.0539465 0.24939 0.00154153 0.00667492 0.00572743 0.0567479 0.00125 72
1 0.375033 0.0129277 0.00189322 0.00946994 0.00720227 -0.146781 0.00125 73
1 0.388929 0.0779342 0.00167516 -0.00021801 -0.00525249 -0.0921262 0.00125 74
1 0.244268 0.460906 0.00157713 0.00594786 -0.00338119 0.0954754 0.00125 75
1 0.295559 0.19545 0.0015965 -0.00418016 -0.00749149 -0.186967 0.00125 76
1 0.260322 0.355302 0.00153018 -0.00324719 0.013265 -0.232309 0.00125 77
1 0.455131 0.343408 0.00169345 -0.0171013 -0.0110763 -0.275347 0.00125 78
1 0.134997 0.436311 0.00180941 -0.00873142 -0.00873732 -0.0458577 0.00125 79
1 0.26994 0.0369113 0.00150158 0.00938619 0.00589245 0.220143 0.00125 80
1 0.0475193 0.261861 0.00163981 0.0108866 -0.0159001 -0.178958 0.00125 81
1 0.0325263 0.261425 0.00142278 0.0296629 0.0406856 -0.226618 0.00125 82
1 0.0879106 0.213538 0.00185713 0.0030106 0.0186727 -0.149292 0.00125 83
1 0.310754 0.115024 0.00134381 0.027654 0.0172142 0.172689 0.00125 84
1 0.387581 0.42631 0.00138803 0.003824 0.000250399 0.154007 0.00125 85
1 0.319076 0.259225 0.00123004 -0.010789 -0.00668821 0.00174923 0.00125 86
1 0.0801255 0.195947 0.00216378 0.00755838 0.00239999 0.0116172 0.00125 87
1 0.436278 0.408629 0.00135372 -0.0114446 -0.00153453 0.186743 0.00125 88
1 0.164896 0.377222 0.00182358 0.00233454 -0.000339112 -0.214928 0.00125 89
1 0.310325 0.415261 0.00176963 -0.0261526 -0.0199027 -0.263012 0.00125 90
1 0.114526 0.0985196 0.0016973 0.00214942 -0.0194937 0.0926975 0.00125 91
1 0.0294025 0.316113 0.00195481 -0.00605777 0.00166726 -0.0234534 0.00125 92
1 0.193477 0.254359 0.00151114 -0.000752498 -0.000995469 0.0950936 0.00125 93
1 0.326954 0.297023 0.0012864 -0.00869727 0.00358656 -0.236099 0.00125 94
1 0.285264 0.334565 0.00138992 0.0113332 0.00562358 -0.205931 0.00125 95
1 0.0769201 0.182999 0.00146492 0.00200857 -0.022842 -0.238835 0.00125 96
1 0.337088 0.206643 0.00147273 -0.0155801 -0.0118576 0.121305 0.00125 97
1 0.439813 0.14522 0.0014378 0.00718372 0.0033596 0.167063 0.00125 98
1 0.445688 0.102639 0.00189134 0.0147954 -0.0149434 -0.0352182 0.00125 99
1 0.385489 0.454639 0.00239113 0.00761186 -0.00975592 -0.121616 0.00125 100
1 0.12141 0.341496 0.00139075 -0.000154831 -0.00348583 0.235536 0.00125 101
1 0.159204 0.424802 0.00131107 0.00879753 -0.0098069 0.197628 0.00125 102
1 0.00681898 0.441623 0.00146676 -0.000204425 0.00125553 0.208778 0.00125 103
1 0.43305 0.0535504 0.00124523 -0.0135173 -0.00241569 -0.242864 0.00125 104
1 0.300421 0.340003 0.00150476 0.0137668 -0.0484913 -0.194047 0.00125 105
1 0.108822 0.388702 0.00147687 -0.018215 -0.00960284 0.120187 0.00125 106
1 0.374103 0.254533 0.00152317 0.00686922 -0.000636721 0.239008 0.00125 107
1 0.27631 0.300458 0.0014002 0.00396864 -0.00380776 0.230962 0.00125 108
1 0.343727 0.310319 0.00138366 0.00222968 -0.0359243 0.155325 0.00125 109
1 0.18989 0.46052 0.00127938 0.00309594 -0.0042611 0.188579 0.00125 110
1 0.182388 0.0224427 0.00144122 -0.00790979 -0.00052941 0.134414 0.00125 111
1 0.399051 0.331435 0.0023688 0.00720252 -0.0121045 -0.0439166 0.00125 112
1 0.388788 0.452461 0.00135279 -6.20083e-05 -0.00785673 0.258951 0.00125 113
1 0.0899113 0.231022 0.00138338 -0.00197342 0.00482207 -0.23928 0.00125 114
1 0.144784 0.022527 0.00166452 0.00664374 0.000699889 -0.228222 0.00125 115
1 0.186599 0.108861 0.00149606 -0.00637756 -0.00638916 -0.268589 0.00125 116
1 0.173406 0.222114 0.0012794 0.00617433 -0.0047364 0.0445665 0.00125 117
1 0.42898 0.198232 0.00241946 -0.00570307 0.00961127 -0.00177476 0.00125 118
1 0.355121 0.400858 0.00239743 0.0236164 -0.0142603 -0.0405702 0.00125 119
1 0.0550191 0.434731 0.00138362 -0.00394876 -0.00389844 -0.105732 0.00125 120
1 0.179905 0.0217348 0.00182996 0.0151032 -0.000691017 -0.0845642 0.00125 121
1 0.195635 0.291228 0.00202624 0.00678382 0.00714675 -0.222215 0.00125 122
1 0.407781 0.0891424 0.00160484 -0.00431266 0.00866478 0.0937234 0.00125 123
1 0.231116 0.00173302 0.00127066 -0.00363283 -0.00747418 -0.232713 0.00125 124
1 0.0469236 0.202541 0.00173503 0.0531286 0.0215227 -0.0703696 0.00125 125
1 0.247438 0.00539072 0.00245776 -0.00243466 -0.00497546 -0.013122 0.00125 126
1 0.355219 0.270763 0.00133229 -0.0159781 -0.00199008 0.17213 0.00125 127
1 0.326546 0.318312 0.00180087 0.0131248 0.0119383 -0.216563 0.00125 128
1 0.271332 0.430422 0.00146305 0.00947014 -0.0090266 0.250287 0.00125 129
1 0.358149 0.177862 0.00179403 -0.00154126 0.00132622 -0.260012 0.00125 130
1 0.164241 0.393169 0.00140628 -0.00282447 -0.0204399 0.217566 0.00125 131
1 0.337509 0.0322042 0.00135874 -0.0329543 0.0155525 -0.186543 0.00125 132
1 0.343573 0.407914 0.00133872 -0.00868838 0.0455803 0.229321 0.00125 133
1 0.421928 0.0648405 0.00164692 0.00695645 0.0261975 -0.0918135 0.00125 134
1 0.382178 0.200054 0.00235181 0.00475749 0.000328564 -0.119946 0.00125 135
1 0.163402 0.372225 0.00126275 0.0198349 -0.00870445 -0.280087 0.00125 136
1 0.144048 0.193052 0.00180066 0.00145605 0.0261979 0.108043 0.00125 137
1 0.205053 0.44629 0.00246116 -0.0264801 0.00310653 -0.0559157 0.00125 138
1 0.0655513 0.438882 0.00152851 0.0874261 -0.0341516 -0.182049 0.00125 139
1 0.0404438 0.45116 0.00144136 -0.0171478 0.00213892 -0.198152 0.00125 140
1 0.0899274 0.0884898 0.00130679 -0.00719575 0.00305138 -0.231435 0.00125 141
1 0.16909 0.0652555 0.00147862 -0.01906 -0.00347121 0.163499 0.00125 142
1 0.374434 0.275572 0.00123474 -0.0202168 -0.0141611 -0.21735 0.00125 143
1 0.0605734 0.070233 0.00136733 -8.51948e-05 -0.00796182 -0.238629 0.00125 144
1 0.260432 0.456745 0.00156889 -0.00256723 0.00807824 -0.226859 0.00125 145
1 0.358813 0.137513 0.00167583 -0.000640114 -0.000342895 -0.274405 0.00125 146
1 0.396841 0.399975 0.00128495 -0.0280153 0.012418 0.241103 0.00125 147
1 0.257946 0.308219 0.00138885 -0.0115459 -0.0192701 0.17578 0.00125 148
1 0.0295341 0.286806 0.00195387 0.0196744 -0.0113682 -0.225413 0.00125 149
1 0.180847 0.26388 0.00127987 0.0164087 0.00364129 -0.231584 0.00125 150
1 0.32444 0.0472843 0.00129598 0.0220619 -0.00420388 0.199958 0.00125 151
1 0.377681 0.388729 0.00224165 -0.0142581 -0.0743086 -0.0357468 0.00125 152
1 0.302251 0.0938596 0.00147438 0.0190093 0.0189729 0.126122 0.00125 153
1 0.0707745 0.178439 0.00135313 0.000779409 0.0377976 0.0590057 0.00125 154
1 0.0264011 0.164517 0.0014619 -0.0165578 0.0145287 -0.19837 0.00125 155
1 0.239545 0.455747 0.00160091 0.00146593 0.00191561 -0.188708 0.00125 156
1 0.0581093 0.0666843 0.00220042 -0.0254566 -0.00704157 -0.0529707 0.00125 157
1 0.110205 0.381263 0.001673 0.0123338 0.0227581 0.0832011 0.00125 158
1 0.159929 0.114835 0.00150965 -0.00822061 0.0171196 0.0995921 0.00125 159
1 0.0475541 0.348678 0.00126751 0.00780686 0.00718886 -0.244062 0.00125 160
1 0.456245 0.127651 0.00151153 -0.000466177 -0.0133066 -0.175004 0.00125 161
1 0.23669 0.0218892 0.00166887 0.0287939 -0.0196298 0.0571283 0.00125 162
1 0.190306 0.152536 0.00124304 0.0145041 0.00162266 0.217144 0.00125 163
1 0.213634 0.274978 0.001272 0.0199386 0.00934466 -0.230918 0.00125 164
1 0.414634 0.428904 0.00205728 0.0285024 -0.0108521 -0.0692422 0.00125 165
1 0.249809 0.139179 0.00125468 0.0171446 0.0149102 -0.316277 0.00125 166
1 0.313242 0.0144938 0.00132887 0.0304635 -0.0111381 0.230365 0.00125 167
1 0.390467 0.177975 0.00142346 0.00190347 -0.0033402 0.141533 0.00125 168
1 0.270489 0.0494337 0.00239733 0.00124534 -0.0215102 -0.0928849 0.00125 169
1 0.0280749 0.337513 0.00140086 0.00734269 0.00793452 -0.229954 0.00125 170
1 0.124979 0.233293 0.0020526 -0.00415893 -0.0118917 -0.0627921 0.00125 171
1 0.407166 0.171474 0.00140287 -0.014381 -0.00894427 -0.236917 0.00125 172
1 0.0881192 0.29331 0.00221229 -0.00883917 0.01721 -0.0533569 0.00125 173
1 0.256399 0.0982888 0.00128468 0.00647977 0.00240191 0.190057 0.00125 174
1 0.145791 0.125539 0.00162879 -0.00758594 0.0172439 -0.227317 0.00125 175
1 0.4122 0.368411 0.00129448 0.000545907 0.00409563 -0.224487 0.00125 176
1 0.0979946 0.37164 0.00165744 0.0272609 -0.0558696 -0.217696 0.00125 177
1 0.265548 0.350038 0.0014216 0.00359838 -0.0200272 -0.183622 0.00125 178
1 0.120685 0.309536 0.00123195 -0.00391796 0.00552778 -0.102951 0.00125 179
1 0.359361 0.293927 0.00141265 0.00833466 0.00258431 -0.225757 0.00125 180
1 0.420663 0.457507 0.00186148 -0.0058767 -0.00669224 -0.151188 0.00125 181
1 0.352357 0.330814 0.00134502 0.0146655 -0.0094635 -0.23739 0.00125 182
1 0.302345 0.110741 0.00200435 0.00804358 -0.0249001 -0.189709 0.00125 183
1 0.0226932 0.413186 0.00154563 -0.00222755 0.00874553 -0.0638742 0.00125 184
1 0.154846 0.0109887 0.00138987 -0.0134123 -0.012018 0.153051 0.00125 185
1 0.0997177 0.00243475 0.00142105 -0.000643683 -0.0115814 0.240913 0.00125 186
1 0.17084 0.0922829 0.00161399 0.0233651 0.0466834 -0.194842 0.00125 187
1 0.124449 0.209449 0.0016317 0.00413124 -0.0549728 0.0782335 0.00125 188
1 0.086044 0.343179 0.00162014 0.00704634 -0.0220913 -0.23212 0.00125 189
1 0.0531243 0.394539 0.00196573 -0.0198659 0.0164627 -0.0406055 0.00125 190
1 0.000946125 0.249042 0.00135507 -0.0318278 -0.00339357 0.191468 0.00125 191
1 0.0579311 0.182446 0.00155018 -0.0720536 -0.0205356 -0.0779877 0.00125 192
1 0.235307 0.0158058 0.00151463 -0.0027066 -0.0100759 -0.229381 0.00125 193
1 0.0198045 0.0051465 0.00136888 -0.00658479 -0.000107547 -0.188875 0.00125 194
1 0.271415 0.34149 0.00169752 0.00112785 -0.014048 0.0980544 0.00125 195
1 0.433562 0.277114 0.00223647 0.0108101 -0.00199477 -0.144559 0.00125 196
1 0.413516 0.308821 0.00153203 -0.00616518 0.0190653 0.110441 0.00125 197
1 0.415463 0.458145 0.0013735 -0.00221608 -0.00440268 0.160615 0.00125 198
1 0.35867 0.128946 0.00152691 -0.00342859 0.000217732 -0.0745737 0.00125 199
1 0.342118 0.313401 0.0014102 0.00346033 0.029253 -0.240255 0.00125 200
1 0.37092 0.0130704 0.00125929 0.00551309 -0.0171768 0.211978 0.00125 201
1 0.295303 0.105577 0.00129202 0.0168343 -0.0398259 -0.240701 0.00125 202
1 0.397535 0.279616 0.0015218 0.00996367 -0.00630051 -0.177434 0.00125 203
1 0.186377 0.202605 0.0014164 0.0191722 -0.003828 -0.239755 0.00125 204
1 0.158077 0.365577 0.00141182 -0.0496366 -0.0264632 -0.09594 0.00125 205
1 0.299348 0.0375117 0.00140262 0.00427387 0.0118712 0.147672 0.00125 206
1 0.371701 0.317891 0.00138222 -0.00428054 0.00692002 0.15504 0.00125 207
1 0.324409 0.22485 0.0018936 -0.00148495 0.00684318 -0.20377 0.00125 208
1 0.210871 0.00471228 0.00207257 -0.0105104 0.032208 -0.060308 0.00125 209
1 0.419697 0.149709 0.00241344 0.000138889 -0.017079 -0.0386247 0.00125 210
1 0.0755953 0.334292 0.00129264 0.0291599 -0.0134027 -0.203339 0.00125 211
1 0.392697 0.0854181 0.00219395 -0.00778881 -0.0068305 -0.0534372 0.00125 212
1 0.238911 0.189408 0.00138382 0.0109944 0.00312056 -0.267595 0.00125 213
1 0.393237 0.351962 0.00130773 -0.00998494 0.0157091 -0.0347641 0.00125 214
1 0.443259 0.185369 0.00127855 -0.0186105 0.023207 0.188407 0.00125 215
1 0.143486 0.449626 0.00151564 0.00336423 0.0118622 -0.0461733 0.00125 216
1 0.342013 0.206036 0.00239781 -0.027088 -0.00498791 -0.0403618 0.00125 217
1 0.449202 0.262275 0.00143278 -0.00252569 0.00435017 -0.179824 0.00125 218
1 0.109425 0.440904 0.00128587 0.0213692 -0.0114713 -0.24834 0.00125 219
1 0.286539 0.0708116 0.00163009 -0.0170551 0.0152901 -0.0920764 0.00125 220
1 0.2053 0.372333 0.00153445 -0.0134409 -0.000370654 -0.052708 0.00125 221
1 0.432409 0.104874 0.00193489 -0.0202177 0.00107684 -0.199722 0.00125 222
1 0.0301598 0.0594622 0.00136274 0.0163085 0.0149053 0.230322 0.00125 223
1 0.00314558 0.432628 0.00133752 0.00792173 -0.00174114 0.153337 0.00125 224
1 0.424083 0.167851 0.00143581 -0.00150111 0.000291133 0.13395 0.00125 225
1 0.25248 0.354347 0.0012622 -0.0197002 -0.0020605 -0.272725 0.00125 226
1 0.156734 0.334416 0.00123939 0.00419885 0.000573377 -0.201655 0.00125 227
1 0.245156 0.323826 0.00176041 -0.012129 0.00340823 -0.264068 0.00125 228
1 0.149369 0.292992 0.0012777 0.00760912 -0.00917531 0.273203 0.00125 229
1 0.145681 0.315839 0.00169065 0.00560314 -0.0125743 0.0608579 0.00125 230
1 0.102969 0.201855 0.00123958 -0.00598743 -0.0150822 -0.202941 0.00125 231
1 0.25748 0.421724 0.00136979 0.0186999 -0.000318671 -0.229041 0.00125 232
1 0.196022 0.324277 0.00124607 -0.0103805 0.00606432 0.191492 0.00125 233
1 0.360949 0.46118 0.00127089 -0.00724602 -0.00274866 -0.217593 0.00125 234
1 0.427311 0.0423472 0.00144845 0.000605673 -0.0124039 0.219102 0.00125 235
1 0.362676 0.0627057 0.0012462 -0.0280042 0.00590575 -0.239397 0.00125 236
1 0.0208839 0.341513 0.00152219 -0.00701825 -0.00108309 -0.229051 0.00125 237
1 0.459763 0.418604 0.00123101 0.00962004 -0.0110281 0.0788482 0.00125 238
1 0.02038 0.253359 0.00239897 -0.00339421 0.0108821 -0.0398819 0.00125 239
1 0.30199 0.315809 0.00150168 0.0346047 -0.0162485 -0.267592 0.00125 240
1 0.191669 0.189625 0.00162527 0.00890112 -0.00394308 -0.181026 0.00125 241
1 0.0502957 0.184416 0.00160223 0.00592668 0.00287195 -0.24961 0.00125 242
1 0.330565 0.309212 0.00123383 0.0189185 0.0470914 0.15374 0.00125 243
1 0.0613587 0.373096 0.00140024 -0.0137313 0.00438755 0.147735 0.00125 244
1 0.0998369 0.157607 0.0019233 -0.0115606 0.00622898 -0.141827 0.00125 245
1 0.100899 0.387515 0.00127174 0.0256072 -0.00831797 0.263662 0.00125 246
1 0.431732 0.419006 0.00177788 0.0036793 -0.0130904 -0.079739 0.00125 247
1 0.179775 0.10256 0.00176683 -0.00309575 -0.00348403 -0.0802248 0.00125 248
1 0.0434427 0.340659 0.0017631 -0.00364474 0.00834913 0.14176 0.00125 249
1 0.39309 0.151805 0.00122534 0.00228976 -0.00541473 0.00205435 0.00125 250
1 0.0736363 0.00395817 0.00158942 0.0214022 -0.0190819 0.0969389 0.00125 251
1 0.147967 0.247217 0.00153212 -0.015819 0.0175467 -0.231585 0.00125 252
1 0.368201 0.3581 0.00213209 -0.0277828 0.00246146 -0.0561327 0.00125 253
1 0.190001 0.401867 0.00158477 -0.00262604 -0.0235186 -0.181856 0.00125 254
1 0.280418 0.0558815 0.00191497 -0.0209098 -0.00873403 -0.0572377 0.00125 255
1 0.43117 0.173646 0.00140882 0.000532367 0.00855099 0.18339 0.00125 256
1 0.220127 0.0536241 0.00155764 0.0157759 0.00354949 0.100326 0.00125 257
1 0.0582109 0.29042 0.00143309 -0.0150957 -0.00698465 -0.240868 0.00125 258
1 0.264658 0.0966001 0.00163673 0.0142794 -0.00107389 -0.1774 0.00125 259
1 0.428916 0.339645 0.00179118 -0.0105984 0.00493509 -0.0869102 0.00125 260
1 0.163955 0.453806 0.00138319 0.00601966 -0.017027 -0.184026 0.00125 261
1 0.156511 0.340086 0.00143394 -0.00168995 0.018117 0.218997 0.00125 262
1 0.25116 0.419738 0.00136442 -0.00148969 -0.00442022 -0.202274 0.00125 263
1 0.290317 0.409812 0.00158184 0.00446053 -0.00652504 0.0782785 0.00125 264
1 0.262436 0.458919 0.00163408 -0.00602087 -0.00483863 0.0932036 0.00125 265
1 0.229321 0.238117 0.00143453 0.0215566 -0.00325382 0.217806 0.00125 266
1 0.0473977 0.122649 0.00134321 0.0171124 0.00911295 -0.234532 0.00125 267
1 0.338186 0.320572 0.0017453 0.0132933 0.00268413 0.0747231 0.00125 268
1 0.357921 0.399823 0.00128586 0.0154802 -0.00668047 -0.231218 0.00125 269
1 0.222454 0.0902241 0.0020205 -0.00818094 -0.0163406 -0.00899057 0.00125 270
1 0.437748 0.099389 0.0012427 -0.0125889 0.00244706 -0.210864 0.00125 271
1 0.154622 0.028161 0.00151488 -0.02591 -0.083729 -0.179516 0.00125 272
1 0.168862 0.305415 0.00123255 -0.00224323 -0.00603589 -0.0211586 0.00125 273
1 0.145522 0.298399 0.00192133 -0.0177351 -0.0174897 -0.204955 0.00125 274
1 0.253719 0.281544 0.00123724 -0.0110566 0.00539457 -0.184063 0.00125 275
1 0.439926 0.334076 0.00229429 -0.00997931 0.0029179 0.0218877 0.00125 276
1 0.0318139 0.0364579 0.00147326 0.0034355 0.0257717 0.166039 0.00125 277
1 0.381619 0.394353 0.00177165 0.0321238 0.0223421 0.148853 0.00125 278
1 0.408554 0.0253836 0.00131222 -0.0035646 0.0144682 0.231014 0.00125 279
1 0.313563 0.462759 0.00222862 0.00171302 -0.0115605 -0.177473 0.00125 280
1 0.227399 0.450548 0.00213527 0.0387475 -0.0205137 -0.0717589 0.00125 281
1 0.460298 0.188424 0.00168288 -0.0015606 0.00242315 -0.0870715 0.00125 282
1 0.147575 0.137471 0.00132502 0.0132513 -0.00346588 0.200802 0.00125 283
1 0.333027 0.427209 0.00152385 0.00071797 -0.00317616 0.108704 0.00125 284
1 0.388858 0.25444 0.00159207 0.00265436 0.0187557 0.141113 0.00125 285
1 0.416475 0.171203 0.00136832 0.0149485 -0.0158712 -0.0770477 0.00125 286
1 0.0951391 0.120348 0.00126211 0.0103623 0.00406113 0.104934 0.00125 287
1 0.360814 0.363013 0.00169108 -0.0100467 0.0246419 -0.0780545 0.00125 288
1 0.0194945 0.0768019 0.00127931 -0.0237162 -0.00351313 0.251532 0.00125 289
1 0.173209 0.372002 0.00177641 -0.0137759 0.00499661 -0.0793573 0.00125 290
1 0.256919 0.120104 0.00133978 -0.00631653 -0.0131676 0.172986 0.00125 291
1 0.182133 0.247154 0.00144691 -0.00519016 0.012437 -0.230722 0.00125 292
1 0.188871 0.194737 0.00133132 -0.00625364 -0.00952406 0.231338 0.00125 293
1 0.212725 0.110868 0.00150515 -0.00659951 0.0511149 -0.11134 0.00125 294
1 0.365071 0.149036 0.00174632 -0.0197541 -0.00715694 0.123373 0.00125 295
1 0.0834691 0.372207 0.00163481 0.000350986 -0.0185227 -0.226882 0.00125 296
1 0.424377 0.354567 0.00234025 -0.000407834 -0.00294315 -0.0610736 0.00125 297
1 0.20459 0.458225 0.00129722 0.0204434 0.0149198 -0.210663 0.00125 298
1 0.370661 0.458738 0.00179236 0.00702257 -0.00424579 0.0939732 0.00125 299
1 0.0957252 0.2163 0.00171753 0.00302831 0.00109362 0.0654641 0.00125 300
1 0.230468 0.289212 0.00215722 0.0358584 -0.00995413 -0.0154677 0.00125 301
1 0.0161899 0.0719786 0.00126715 -0.0103111 -0.0129893 0.175186 0.00125 302
1 0.462712 0.319637 0.00140792 -0.0088819 -0.0204707 0.146581 0.00125 303
1 0.243113 0.0630827 0.00195944 -0.0186299 -0.00282278 -0.197303 0.00125 304
1 0.438525 0.196289 0.00242325 0.00241853 0.0116132 0.0321234 0.00125 305
1 0.164195 0.133583 0.00139227 -0.0749252 0.0243174 0.119991 0.00125 306
1 0.149871 0.0684207 0.00154611 -0.0221766 -0.0211149 0.102848 0.00125 307
1 0.125775 0.0982723 0.00139901 -0.00396856 0.0160231 0.221617 0.00125 308
1 0.415058 0.302341 0.00168772 0.00379486 -0.0287259 0.0952425 0.00125 309
1 0.213272 0.267327 0.00239103 -0.0233338 0.0103926 -0.0622921 0.00125 310
1 0.460728 0.121221 0.00130151 -0.000128629 -0.00478239 0.152921 0.00125 311
1 0.328637 0.293223 0.00155339 0.00979345 0.000487946 0.06459 0.00125 312
1 0.12717 0.130147 0.00148699 0.0120329 0.0227517 -0.235951 0.00125 313
1 0.222416 0.39355 0.0022732 0.00575951 0.00577785 -0.047441 0.00125 314
1 0.461146 0.343265 0.00134826 0.011757 -0.00415659 0.190048 0.00125 315
1 0.280062 0.180417 0.0013776 -0.0142662 -0.00448969 0.160703 0.00125 316
1 0.419841 0.202282 0.00147665 0.00884164 0.00711145 0.126954 0.00125 317
1 0.411354 0.46155 0.00158811 0.0120437 -0.0132617 0.138795 0.00125 318
1 0.0234654 0.23407 0.00127084 0.0180859 -0.000619979 -0.0257055 0.00125 319
1 0.40199 0.336503 0.00226168 -0.00664305 -0.00510757 -0.0488518 0.00125 320
1 0.361279 0.0825425 0.00139995 0.00827995 -0.0195323 -0.255563 0.00125 321
1 0.28392 0.306605 0.00132106 -0.000726289 0.00763512 0.179908 0.00125 322
1 0.07811 0.0208084 0.00157748 0.00331944 -0.00197824 0.100335 0.00125 323
1 0.229331 0.43083 0.00143661 0.0318882 -0.00834879 -0.301476 0.00125 324
1 0.273393 0.282481 0.0013298 -0.0143256 -0.0077679 0.172368 0.00125 325
1 0.167293 0.129081 0.00154416 -0.00339096 -0.00774828 -0.230451 0.00125 326
1 0.163129 0.0549625 0.00125901 -0.0225407 0.0148235 -0.255373 0.00125 327
1 0.301962 0.44643 0.0014418 -0.00175728 -0.00615284 0.130646 0.00125 328
1 0.122332 0.101274 0.00159009 0.0143821 0.000681244 0.141165 0.00125 329
1 0.00615344 0.0601527 0.00164908 -0.0043566 -0.00864363 0.0909576 0.00125 330
1 0.286487 0.355614 0.0012903 -0.00578485 0.0078375 -0.234305 0.00125 331
1 0.252245 0.159965 0.00192741 0.000295193 -0.00789122 -0.0690686 0.00125 332
1 0.02895 0.392279 0.00153419 0.00407358 0.0250566 -0.292386 0.00125 333
1 0.258659 0.149806 0.00123373 0.00760785 0.00625051 0.127503 0.00125 334
1 0.185357 0.320591 0.00142383 0.0124996 0.010933 0.238199 0.00125 335
1 0.0809503 0.461594 0.00149056 -0.00642805 0.0183168 -0.19471 0.00125 336
1 0.136579 0.242284 0.00125636 0.00106394 0.00602117 -0.275272 0.00125 337
1 0.0430784 0.300079 0.00188972 0.00149644 0.0107918 -0.0697943 0.00125 338
1 0.307916 0.0564729 0.0013953 0.00402015 0.000901418 0.153592 0.00125 339
1 0.0371686 0.247765 0.00195261 -0.026733 0.00868934 -0.196722 0.00125 340
1 0.38852 0.456523 0.00141285 -0.0135378 0.00886696 0.21886 0.00125 341
1 0.36646 0.323099 0.00123292 0.00251133 0.0095873 -0.198028 0.00125 342
1 0.176454 0.0688005 0.00169546 -0.0138627 -0.00337929 -0.227357 0.00125 343
1 0.146715 0.460523 0.00148847 -0.0174641 0.00368442 -0.23771 0.00125 344
1 0.336031 0.0841508 0.0012862 -0.00669388 0.0147458 0.237612 0.00125 345
1 0.205189 0.218409 0.00123782 -0.0177322 0.0129867 0.191106 0.00125 346
1 0.139109 0.242901 0.00186396 -0.0384778 -0.00887224 -0.195883 0.00125 347
1 0.0666034 0.148696 0.00127691 0.0275871 0.0330824 -0.276551 0.00125 348
1 0.214483 0.435563 0.00164672 0.0278998 0.00779988 -0.175556 0.00125 349
1 0.00191013 0.261992 0.0014921 0.011392 0.00240922 0.121539 0.00125 350
1 0.255902 0.342032 0.00159389 -0.0101272 -0.00906853 -0.234182 0.00125 351
1 0.148777 0.318486 0.00172314 -0.0112928 0.00819411 0.0958708 0.00125 352
1 0.394829 0.0175241 0.0015533 -0.0110559 0.0151331 -0.229382 0.00125 353
1 0.1444 0.0312379 0.00244416 -0.00512237 0.0144171 -0.102947 0.00125 354
1 0.0102426 0.0732926 0.00132278 -0.01064 -0.00506194 0.169487 0.00125 355
1 0.461098 0.367616 0.00157137 0.00318906 -0.012202 0.0829415 0.00125 356
1 0.382318 0.126019 0.0023276 0.00333796 -0.00472034 -0.0445121 0.00125 357
1 0.427774 0.45519 0.00200059 -0.0212472 -0.0288385 -0.0655529 0.00125 358
1 0.217607 0.312318 0.00143426 -0.0261666 0.00712042 0.217083 0.00125 359
1 0.376646 0.177376 0.001492 0.00754609 0.033719 -0.188956 0.00125 360
1 0.410307 0.416396 0.00163614 -0.00978124 -0.0203435 -0.0899198 0.00125 361
1 0.183289 0.398463 0.00182035 0.0136994 -0.00146255 -0.0865265 0.00125 362
1 0.272806 0.156895 0.00248928 0.0125243 0.00025655 -0.0347505 0.00125 363
1 0.202298 0.456881 0.00145168 0.00496216 0.0222481 -0.222351 0.00125 364
1 0.0946406 0.266848 0.00138366 0.0206717 -0.00110445 0.152792 0.00125 365
1 0.0346874 0.420876 0.00132345 0.00100281 -0.0306065 0.165544 0.00125 366
1 0.103078 0.095214 0.00221709 0.0228529 0.00721398 -0.0679003 0.00125 367
1 0.306386 0.272898 0.00184852 -0.0123325 -0.00832754 -0.0742437 0.00125 368
1 0.166321 0.0771141 0.00147922 0.0312848 0.0228265 -0.19679 0.00125 369
1 0.195512 0.112438 0.00194065 -0.00990465 -0.00516899 -0.069535 0.00125 370
1 0.179032 0.241876 0.00169339 -0.017276 0.0292751 -0.227026 0.00125 371
1 0.398788 0.251827 0.00203671 -0.0106837 0.00590811 -0.062837 0.00125 372
1 0.26018 0.00996474 0.00145942 -0.00570013 0.00176135 -0.239581 0.00125 373
1 0.189326 0.238951 0.00127851 0.00870891 -0.0406038 0.192561 0.00125 374
1 0.262473 0.45381 0.00130231 -0.00942237 0.0177962 0.207166 0.00125 375
1 0.0733256 0.0462135 0.00179495 0.0193115 0.000258948 -0.0998103 0.00125 376
1 0.424781 0.426529 0.001507 -0.00125386 -0.00776066 -0.237188 0.00125 377
1 0.0387672 0.00937924 0.00129244 0.0035852 -0.0218681 -0.240497 0.00125 378
1 0.0557834 0.237181 0.00136961 0.0112063 -0.00440311 -0.202386 0.00125 379
1 0.455121 0.145958 0.00131307 -0.0167818 0.0133214 0.180505 0.00125 380
1 0.0905783 0.14712 0.00230131 -0.0218066 0.00312999 0.0230417 0.00125 381
1 0.233654 0.152436 0.0015307 -0.00203589 0.00132339 -0.194627 0.00125 382
1 0.0638809 0.160022 0.00226301 -0.00854763 0.0100549 -0.137283 0.00125 383
1 0.364827 0.161594 0.00129972 0.0105054 0.00568256 -0.232729 0.00125 384
1 0.0676588 0.114213 0.00160653 0.0111397 -0.0224576 -0.179645 0.00125 385
1 0.0745165 0.301609 0.00152512 -0.0206855 -0.00010418 -0.238308 0.00125 386
1 0.0863319 0.24769 0.00144767 0.0156598 -0.00149737 -0.239016 0.00125 387
1 0.343444 0.261889 0.00183978 -0.0470759 0.0629523 -0.0671242 0.00125 388
1 0.0988049 0.379545 0.00132092 -0.0101653 -0.00308773 -0.225488 0.00125 389
1 0.195686 0.13002 0.00183946 0.00530338 -0.0103909 -0.208775 0.00125 390
1 0.348717 0.161658 0.00131282 0.0109803 -0.00486654 -0.243743 0.00125 391
1 0.157315 0.348005 0.00140278 -0.00228581 0.00329503 -0.236924 0.00125 392
1 0.449825 0.216662 0.00133948 -0.00327187 0.00339242 -0.226566 0.00125 393
1 0.333361 0.187288 0.00190498 -0.0241715 0.000408931 -0.204362 0.00125 394
1 0.15423 0.121188 0.00236932 0.00535289 -0.0130701 -0.0243715 0.00125 395
1 0.341551 0.0653462 0.00136916 -0.0154657 0.00377981 0.128552 0.00125 396
1 0.434142 0.122661 0.0020257 -0.0192633 -0.0257417 -0.0671877 0.00125 397
1 0.0100433 0.0620407 0.00172874 -0.00609211 -0.0025193 -0.0830885 0.00125 398