ITEM: TIMESTEP
1000000
ITEM: NUMBER OF ATOMS
10000
ITEM: BOX BOUNDS pp pp ff
0.0000000000000000e+00 4.3641044625000003e-01
0.0000000000000000e+00 4.3641044625000003e-01
-1.2500000000000001e-02 1.2500000000000001e-02
ITEM: ATOMS type x y z vx vy vz radius id
1 0.0481596 0.199504 0.00123818 -0.000973905 -0.0100987 -0.191408 0.00125 1
1 0.07282 0.300394 0.00145769 0.00594528 -0.00128921 -0.228302 0.00125 2
1 0.247504 0.274762 0.00130423 -0.0191838 0.00537795 -0.226334 0.00125 3
1 0.298556 0.306115 0.00135826 -0.0109126 0.000104025 0.163622 0.00125 4
1 0.407776 0.346013 0.00182766 -0.0100634 -1.41709e-05 -0.218342 0.00125 5
1 0.124595 0.0595752 0.0017252 0.00408307 -0.000535128 -0.197248 0.00125 6
1 0.367172 0.203801 0.00168496 -0.00420985 -0.00932204 0.0849212 0.00125 7
1 0.239495 0.128673 0.00160042 0.035986 0.0208549 0.196642 0.00125 8
1 0.175289 0.155309 0.00130885 -0.0127526 -0.0339202 -0.239535 0.00125 9
1 0.366341 0.435191 0.00176415 0.0252584 0.00610628 -0.220598 0.00125 10
1 0.13573 0.251715 0.00219618 -0.0144928 0.00584397 -0.0535183 0.00125 11
1 0.160157 0.20364 0.00130302 0.0118966 0.0124481 -0.109635 0.00125 12
1 0.13808 0.375485 0.00142887 -0.0161552 -0.00853357 0.127766 0.00125 13
1 0.205792 0.425482 0.00125034 0.0370278 -0.000352913 -0.228075 0.00125 14
1 0.269505 0.0421885 0.00219171 -0.0035594 0.0117673 -0.0689135 0.00125 15
1 0.0235417 0.357165 0.00144194 0.00713549 0.00261408 -0.237325 0.00125 16
1 0.381534 0.374275 0.001572 -0.00498801 0.0206109 -0.200859 0.00125 17
1 0.0583654 0.395369 0.00158937 0.00804801 0.0137225 -0.170335 0.00125 18
1 0.0747287 0.00256655 0.00126925 -0.0222064 -0.00427685 0.241357 0.00125 19
1 0.147846 0.18863 0.00146105 -0.00591109 0.0182366 -0.185704 0.00125 20
1 0.403561 0.0462416 0.00145737 0.0126569 0.0161634 0.149912 0.00125 21
1 0.177006 0.100811 0.00155681 0.0231088 0.0166026 -0.203698 0.00125 22
1 0.104121 0.347707 0.00147166 0.00916993 0.0117311 0.134466 0.00125 23
1 0.229551 0.109603 0.00125403 0.0129989 -0.00897406 -0.254699 0.00125 24
1 0.177601 0.061485 0.00179435 0.00916445 -0.00348621 -0.0792774 0.00125 25
1 0.421819 0.354325 0.00130741 0.00341741 0.00270865 -0.219071 0.00125 26
1 0.0161495 0.296431 0.0022033 0.0130877 -0.00808599 -0.0192707 0.00125 27
1 0.265268 0.217981 0.00160811 -0.0118702 -5.24648e-05 0.0915347 0.00125 28
1 0.406574 0.405227 0.00149396 0.0295544 0.00980504 -0.238794 0.00125 29
1 0.066702 0.34347 0.00144056 0.00889008 0.0158689 0.138617 0.00125 30
1 0.420851 0.275684 0.00150498 0.0131123 0.0267966 0.21093 0.00125 31
1 0.235276 0.123275 0.00228801 0.00196289 0.000675117 -0.137846 0.00125 32
1 0.355851 0.316672 0.00220452 0.0100038 -0.013172 -0.052875 0.00125 33
1 0.230646 0.415186 0.00139494 -0.0221254 -0.00331088 -0.25284 0.00125 34
1 0.312697 0.136333 0.00154904 0.0089255 -0.00971415 -0.179091 0.00125 35
1 0.0206335 0.27755 0.00192968 -0.0115673 0.0140776 -0.189723 0.00125 36
1 0.183284 0.0500013 0.0017066 0.0163232 0.00634097 -0.0840744 0.00125 37
1 0.123462 0.152483 0.00190986 0.00720897 -0.0126486 -0.010509 0.00125 38
1 0.189439 0.200398 0.00136167 -0.00031788 -0.00610628 -0.251626 0.00125 39
1 0.046134 0.0536015 0.00131714 -0.0274939 0.0263921 0.176272 0.00125 40
1 0.228022 0.326984 0.00128241 -0.00132932 0.00591551 -0.231956 0.00125 41
1 0.0439138 0.121544 0.00176061 -0.0187715 0.0376424 -0.219958 0.00125 42
1 0.304315 0.330528 0.00140671 -0.000207696 0.00631557 -0.232537 0.00125 43
1 0.359018 0.211518 0.00137155 -0.013563 -0.0127634 -0.23532 0.00125 44
1 0.201727 0.380468 0.00144968 -0.00407852 -0.00609141 0.223165 0.00125 45
1 0.0308214 0.432243 0.00192968 0.0195806 -0.0170765 -0.0874808 0.00125 46
1 0.0469501 0.302668 0.00226099 0.0338079 0.0102423 -0.0426143 0.00125 47
1 0.42108 0.111049 0.00149382 0.0100846 -0.0166532 0.119717 0.00125 48
1 0.274523 0.323933 0.00133169 -0.0227427 0.00162708 0.231322 0.00125 49
1 0.340013 0.357728 0.00189257 -0.00200327 -0.0216951 -0.0721622 0.00125 50
1 0.0479693 0.293366 0.00128385 -0.0149087 -0.00230509 -0.230687 0.00125 51
1 0.391502 0.366309 0.00136347 0.0241989 0.0153693 0.181317 0.00125 52
1 0.237744 0.382603 0.00140889 0.0107654 -0.0166056 0.146516 0.00125 53
1 0.190777 0.052918 0.00132687 -0.000561254 -0.00351135 0.0847758 0.00125 54
1 0.390919 0.195443 0.00125485 -0.00513117 -0.0107648 0.192801 0.00125 55
1 0.169157 0.275264 0.00165322 0.0119197 0.00400192 0.0939741 0.00125 56
1 0.0423581 0.0927286 0.00201981 0.0315107 0.0375092 -0.104967 0.00125 57
1 0.0659709 0.0235456 0.00155183 0.0321663 -0.0276722 0.138069 0.00125 58
1 0.424785 0.398695 0.00132488 -0.0188102 -0.00591073 -0.234763 0.00125 59
1 0.200366 0.36659 0.00228221 -0.0245752 -0.0072096 -0.046771 0.00125 60
1 0.00545662 0.287712 0.00125476 0.0585036 0.0172958 -0.285679 0.00125 61
1 0.266732 0.00468965 0.00174051 0.00280636 -0.00307183 -0.067947 0.00125 62
1 0.134317 0.131907 0.00123491 0.0312757 -0.00915507 0.131584 0.00125 63
1 0.265111 0.0848931 0.00130912 0.0174236 0.00673782 0.150796 0.00125 64
1 0.127556 0.403281 0.00163111 -0.0113823 -0.0160784 0.113393 0.00125 65
1 0.209865 0.375885 0.00128232 -0.0114286 -0.0229804 0.257348 0.00125 66
1 0.0690963 0.259857 0.00146432 0.00607988 0.0428942 -0.180444 0.00125 67
1 0.155899 0.046548 0.00175565 -0.0277567 -0.00894851 -0.156012 0.00125 68
1 0.117413 0.404909 0.00190646 0.0123314 -0.0153405 -0.210561 0.00125 69
1 0.286261 0.187222 0.00203796 0.0162125 0.00513831 -0.0641879 0.00125 70
1 0.0343965 0.309295 0.00176232 0.00909314 -0.00745951 0.148518 0.00125 71
1 0.139255 0.213449 0.00123018 -0.00550602 -0.00232142 -0.00446472 0.00125 72
1 0.0746902 0.242671 0.00136802 -0.0141083 0.00851914 -0.237703 0.00125 73
1 0.149824 0.0547633 0.00140183 0.0191562 -0.00121879 0.229341 0.00125 74
1 0.199063 0.298703 0.00135132 0.00478785 0.00618889 0.168623 0.00125 75
1 0.259212 0.00202642 0.00138006 0.00373984 0.00560766 -0.193009 0.00125 76
1 0.273555 0.335996 0.00211281 -0.0429717 0.0437407 -0.172122 0.00125 77
1 0.395258 0.35527 0.00148681 -0.00640363 -0.0030649 0.121794 0.00125 78
1 0.164075 0.0742744 0.00148115 -0.0111531 -0.0203883 0.148405 0.00125 79
1 0.420909 0.169207 0.00162721 -0.00483497 -0.00425613 0.092461 0.00125 80
1 0.136798 0.353948 0.00178487 -0.00661496 0.0103397 -0.262692 0.00125 81
1 0.408499 0.0267015 0.00138234 -0.00582105 -0.0111199 0.158633 0.00125 82
1 0.03909 0.262968 0.00201629 0.00531868 -0.00768761 -0.18769 0.00125 83
1 0.306667 0.336596 0.00150108 0.000601075 0.011483 -0.184448 0.00125 84
1 0.205512 0.265468 0.00155095 0.0194723 0.0102762 -0.0704163 0.00125 85
1 0.346138 0.223398 0.00123725 -0.000853807 -0.00805696 -0.176784 0.00125 86
1 0.214174 0.412406 0.00129824 0.00506818 -0.0113012 0.197018 0.00125 87
1 0.24372 0.128126 0.00136687 0.00751715 0.0205709 0.218003 0.00125 88
1 0.177316 0.311539 0.00150888 0.0423082 0.0455159 -0.172268 0.00125 89
1 0.229231 0.123964 0.00175787 -0.0106497 0.0124741 -0.267333 0.00125 90
1 0.0435196 0.129225 0.00174703 -0.00428066 -0.0163941 0.0786672 0.00125 91
1 0.179763 0.00459774 0.00134068 -0.00787185 0.0142687 0.173072 0.00125 92
1 0.22472 0.00534507 0.00150188 -0.00756498 -0.0190191 -0.238737 0.00125 93
1 0.0266984 0.249711 0.00173081 -0.00607633 0.0197003 0.0972621 0.00125 94
1 0.185152 0.221069 0.00221693 0.00379035 -0.0013766 -0.176382 0.00125 95
1 0.00446107 0.322715 0.00186626 -0.0124182 -9.0159e-05 -0.0845121 0.00125 96
1 0.159441 0.210865 0.00128533 0.00538181 0.00324775 0.156489 0.00125 97
1 0.428063 0.371064 0.00164004 0.0454228 -0.0060316 0.0998541 0.00125 98
1 0.0337989 0.328797 0.00144246 -0.00820403 -0.000169696 -0.229149 0.00125 99
1 0.238808 0.159029 0.00187726 -0.0324693 0.000186166 -0.207919 0.00125 100
1 0.18645 0.0364193 0.00144303 -0.0130557 0.0194976 -0.231093 0.00125 101
1 0.354972 0.307277 0.00135278 0.00875192 0.0128789 -0.196322 0.00125 102
1 0.315499 0.00802349 0.00132698 -0.027033 0.0143873 -0.225937 0.00125 103
1 0.0739078 0.110364 0.00133169 0.00249572 -0.00256806 0.196202 0.00125 104
1 0.386743 0.252721 0.00124024 -0.011514 -0.0285507 0.103289 0.00125 105
1 0.149764 0.26668 0.00153373 0.0310745 -0.0310576 -0.221806 0.00125 106
1 0.426082 0.298103 0.00158328 0.0167626 0.000365315 0.142179 0.00125 107
1 0.173634 0.388433 0.00173871 -0.00855453 0.0189674 0.107219 0.00125 108
1 0.40707 0.145291 0.0017938 -0.00373122 -0.00311768 -0.214918 0.00125 109
1 0.388582 0.423321 0.00130651 0.00832759 0.000131643 -0.236253 0.00125 110
1 0.356077 0.382178 0.00154293 -0.0193068 -0.00181012 -0.0869375 0.00125 111
1 0.117353 0.125054 0.00130748 0.00306188 -0.00825287 0.162738 0.00125 112
1 0.393465 0.191027 0.00176889 -0.0359638 -0.0154136 -0.236354 0.00125 113
1 0.0815012 0.0541633 0.00146624 0.0181371 -0.00054237 -0.233855 0.00125 114
1 0.0846996 0.0107547 0.00197095 0.0162437 0.0147592 -0.196467 0.00125 115
1 0.0391029 0.00352873 0.00165894 -0.00814007 0.0198466 -0.0873178 0.00125 116
1 0.297973 0.045699 0.00127763 -0.0295351 -0.0322983 -0.164433 0.00125 117
1 0.0150679 0.018207 0.00149025 0.0171203 0.0710127 -0.235172 0.00125 118
1 0.274426 0.110493 0.00139671 0.00113221 0.000361264 0.232943 0.00125 119
1 0.272144 0.236346 0.00141971 0.0307923 -0.0691362 -0.206547 0.00125 120
1 0.187933 0.273436 0.00134201 -0.00342659 -0.0112493 -0.278801 0.00125 121
1 0.22807 0.396964 0.00249995 -0.00654102 0.0368487 0.0291684 0.00125 122
1 0.425689 0.116001 0.00151665 -0.00306646 0.0197001 0.239612 0.00125 123
1 0.176999 0.419576 0.00143792 0.024155 0.0281759 0.139777 0.00125 124
1 0.263446 0.207124 0.00143497 5.52189e-05 -0.000356263 -0.19847 0.00125 125
1 0.267427 0.298092 0.00142337 0.000610227 9.18109e-05 -0.199298 0.00125 126
1 0.0379523 0.325816 0.00130175 -0.012409 0.00158051 0.197793 0.00125 127
1 0.404973 0.386761 0.00203102 0.000921504 -0.0571852 -0.200808 0.00125 128
1 0.0893428 0.356497 0.00162313 0.00628934 -0.0268434 0.0800471 0.00125 129
1 0.0110244 0.353529 0.00125595 -0.00847074 0.0453972 -0.207094 0.00125 130
1 0.218743 0.090778 0.00159324 0.00865017 0.00583679 -0.233781 0.00125 131
1 0.386456 0.261817 0.00176444 0.0102102 0.00399066 0.137858 0.00125 132
1 0.418478 0.134719 0.00125929 0.0172768 -0.00747167 -0.197417 0.00125 133
1 0.215978 0.244796 0.00123613 0.00278509 -0.00520893 0.157778 0.00125 134
1 0.303923 0.206983 0.00196737 -0.0182311 -0.0221748 -0.195467 0.00125 135
1 0.0720205 0.428951 0.0016767 -0.0151649 0.00916849 -0.0871826 0.00125 136
1 0.192402 0.0321492 0.00237218 0.00678812 -0.00357604 0.00832622 0.00125 137
1 0.328081 0.180168 0.00220116 -0.0180348 0.0158573 0.0158183 0.00125 138
1 0.145725 0.380162 0.00165496 -0.00113115 -0.00556891 0.157444 0.00125 139
1 0.20067 0.347646 0.00130203 -0.019119 -0.00328924 -0.253291 0.00125 140
1 0.141139 0.0280896 0.00143948 -0.000638851 0.00229164 0.136673 0.00125 141
1 0.425164 0.341188 0.00141766 -0.0293537 0.00649384 -0.249437 0.00125 142
1 0.0916561 0.28139 0.00122604 0.00809073 -0.00957813 -0.0362286 0.00125 143
1 0.0438588 0.327184 0.00161049 -0.00246923 -0.0160207 -0.227732 0.00125 144
1 0.0258371 0.172032 0.00184199 0.00734854 0.00625602 -0.195024 0.00125 145
1 0.302587 0.254028 0.00159009 -0.0113184 0.0043185 0.222196 0.00125 146
1 0.109387 0.408946 0.00165655 0.00403817 -0.01034 -0.225301 0.00125 147
1 0.0554794 0.420625 0.00130553 -0.0153783 0.00814453 0.17556 0.00125 148
1 0.266316 0.419986 0.00131536 0.0345997 -0.0628056 0.214998 0.00125 149
1 0.0184856 0.229352 0.00123188 -0.00978297 0.000873164 -0.00616928 0.00125 150
1 0.321669 0.2052 0.00149903 0.00549912 0.0312096 -0.21865 0.00125 151
1 0.0835092 0.177464 0.00140129 0.0249768 0.00693313 -0.305645 0.00125 152
1 0.130137 0.379357 0.00175693 0.0167492 -0.000441312 -0.0527839 0.00125 153
1 0.0752236 0.051074 0.00131567 -0.00320059 0.00688146 0.0992968 0.00125 154
1 0.312085 0.385943 0.0014422 -0.0264333 -0.000774511 0.243858 0.00125 155
1 0.064785 0.157762 0.0013167 -0.00650804 0.00771106 0.176103 0.00125 156
1 0.0192542 0.0947231 0.0012595 0.0092998 -0.00142609 0.193995 0.00125 157
1 0.121549 0.135605 0.00173046 -0.00823369 0.00543137 0.112041 0.00125 158
1 0.215793 0.0333666 0.00129181 0.0155081 -0.00705175 0.185037 0.00125 159
1 0.376292 0.28811 0.00130527 -0.00779391 -0.000373761 -0.229892 0.00125 160
1 0.279389 0.389123 0.00124605 -0.0105508 0.00104353 0.196356 0.00125 161
1 0.259567 0.342172 0.0020654 -0.00501585 -0.00915932 -0.181263 0.00125 162
1 0.277541 0.183183 0.00226977 0.0295304 0.0264103 0.0213448 0.00125 163
1 0.375742 0.0696212 0.00126282 0.00890674 0.0150379 0.195321 0.00125 164
1 0.164855 0.0538459 0.00140783 -0.0176618 0.00190705 0.165167 0.00125 165
1 0.149786 0.142943 0.00144129 -0.00189614 -0.0321389 0.137435 0.00125 166
1 0.0148235 0.258785 0.00164824 -0.0034418 0.00747311 -0.171065 0.00125 167
1 0.410922 0.316067 0.00123578 0.0187767 0.00332606 -0.178466 0.00125 168
1 0.247468 0.282501 0.00207456 -0.00593049 -0.0370046 -0.178236 0.00125 169
1 0.249477 0.416249 0.00136403 -0.0137214 -0.0135609 0.142603 0.00125 170
1 0.32943 0.415057 0.00157588 -0.0168498 0.00417563 -0.233783 0.00125 171
1 0.0478034 0.369411 0.00141421 0.00893579 -0.0251324 0.172751 0.00125 172
1 0.290798 0.073426 0.00149511 0.010717 -0.0236507 -0.248139 0.00125 173
1 0.27229 0.289634 0.00172421 0.0379075 0.0286519 -0.140104 0.00125 174
1 0.226346 0.425088 0.0012471 -0.00164085 0.00493331 -0.11496 0.00125 175
1 0.254103 0.360417 0.00136908 -0.00769991 -0.0159707 -0.250105 0.00125 176
1 0.0673466 0.240117 0.00158344 -0.0186277 0.0072613 0.0965912 0.00125 177
1 0.0254592 0.277448 0.00127235 0.00414659 -0.0117035 0.171998 0.00125 178
1 0.244057 0.0531109 0.00123198 -0.00562835 -0.00446154 0.0976 0.00125 179
1 0.40117 0.0621597 0.00245135 0.00868608 0.0054687 -0.0994472 0.00125 180
1 0.138708 0.0816517 0.00153311 -0.020894 -0.00494675 -0.194495 0.00125 181
1 0.31551 0.379455 0.00133565 -0.018972 -0.0390003 0.174213 0.00125 182
1 0.0192975 0.0666336 0.00201969 -0.0199807 -0.0587365 -0.0265733 0.00125 183
1 0.367659 0.316092 0.00128791 -0.00999905 -0.0155254 0.185163 0.00125 184
1 0.266005 0.0573105 0.00152478 0.0126135 0.0219027 0.110686 0.00125 185
1 0.0308908 0.0725142 0.00146587 -0.00367382 -0.000214138 0.234511 0.00125 186
1 0.278954 0.233986 0.0014824 0.019224 0.0104516 -0.178857 0.00125 187
1 0.137263 0.0172897 0.00139724 -0.017569 0.01388 -0.227975 0.00125 188
1 0.408509 0.400017 0.0013523 -0.0172426 -0.0147625 -0.239926 0.00125 189
1 0.424012 0.404162 0.00166577 0.0254594 0.000858796 -0.230196 0.00125 190
1 0.363846 0.306085 0.00147736 0.0124962 0.0022328 -0.232893 0.00125 191
1 0.15101 0.136975 0.00150661 0.00570593 -0.00895221 -0.1894 0.00125 192
1 0.0560776 0.00778998 0.00174912 0.00886053 -0.0222636 -0.060741 0.00125 193
1 0.0995202 0.383597 0.00157608 -0.010769 -0.00978622 -0.2354 0.00125 194
1 0.197769 0.341675 0.0012799 -0.00823006 -0.0172387 0.187672 0.00125 195
1 0.289322 0.141048 0.00166464 0.0108247 -0.012216 0.181282 0.00125 196
1 0.0153678 0.238791 0.00128109 0.000388503 -0.00140733 -0.297394 0.00125 197
1 0.00666723 0.290789 0.0020373 0.00875145 -0.000181429 -0.0642834 0.00125 198
1 0.323703 0.0409689 0.00155404 0.00930466 -0.00364177 -0.231702 0.00125 199
1 0.120637 0.125609 0.00130173 0.0118798 -0.00244375 0.180668 0.00125 200
1 0.363442 0.00901915 0.00135111 -0.050864 -0.0407706 -0.281857 0.00125 201
1 0.133604 0.249508 0.00147608 0.0292715 -0.014768 0.0153241 0.00125 202
1 0.0626243 0.0594065 0.00133175 -0.00906707 0.0148199 -0.232444 0.00125 203
1 0.164226 0.416718 0.0022229 -0.013556 -0.00865882 -0.0142872 0.00125 204
1 0.13846 0.431101 0.00172176 0.00019312 -0.0262718 -0.049531 0.00125 205
1 0.258 0.328678 0.00189306 -0.000492238 0.00614008 -0.081982 0.00125 206
1 0.394347 0.206591 0.00137028 0.00182805 -0.0108435 0.268213 0.00125 207
1 0.200847 0.373127 0.00245976 0.00925978 -0.00875013 -0.0851886 0.00125 208
1 0.396055 0.400444 0.00131015 -0.00915111 0.00835254 -0.282349 0.00125 209
1 0.0729677 0.426368 0.00130907 -0.00993341 0.0161829 -0.237381 0.00125 210
1 0.356923 0.293925 0.00237781 -0.0177489 0.00922721 -0.102492 0.00125 211
1 0.105128 0.195425 0.00175009 -0.0128815 0.0167085 -0.161016 0.00125 212
1 0.251264 0.166942 0.00155746 -0.00093472 0.0170143 -0.242114 0.00125 213
1 0.0833573 0.0632374 0.00126737 0.00143235 -0.0151523 0.173056 0.00125 214
1 0.116633 0.0310882 0.00146498 -0.00125718 -0.0196021 -0.239224 0.00125 215
1 0.330633 0.371859 0.00123259 0.0132422 -0.0329142 -0.11431 0.00125 216
1 0.38753 0.236976 0.00127513 0.0136983 -0.00891948 0.214439 0.00125 217
1 0.106328 0.17176 0.00139422 0.00735901 -0.0163124 0.153617 0.00125 218
1 0.198008 0.405357 0.00139544 0.00376599 0.00355245 0.179548 0.00125 219
1 0.0752155 0.271096 0.00209809 -0.000781277 0.000899291 -0.194241 0.00125 220
1 0.185414 0.213381 0.00154793 0.00573417 0.0140442 -0.236121 0.00125 221
1 0.277368 0.187322 0.00235115 0.012639 0.0299442 -0.0612874 0.00125 222
1 0.225418 0.0817789 0.00141866 -0.0222531 -0.020221 -0.197839 0.00125 223
1 0.125506 0.0145686 0.00146877 -0.0051432 0.003997 -0.197912 0.00125 224
1 0.155125 0.0985623 0.00130385 0.0155938 0.00119909 0.203818 0.00125 225
1 0.420734 0.31705 0.00172898 -0.0514028 0.0294216 0.102771 0.00125 226
1 0.0525533 0.368112 0.00203288 0.00669513 -0.0176828 -0.059534 0.00125 227
1 0.0457474 0.000740525 0.00124193 0.00887278 0.00491123 -0.215771 0.00125 228
1 0.139908 0.404402 0.00163732 0.00336891 -0.00224716 -0.057698 0.00125 229
1 0.283997 0.010956 0.00165395 -0.00879265 -0.0166676 -0.0492212 0.00125 230
1 0.144892 0.118852 0.00164648 0.0217676 0.00332559 0.0911461 0.00125 231
1 0.325872 0.171118 0.00125357 -0.00275922 0.0030893 -0.19412 0.00125 232
1 0.257889 0.422921 0.00177722 0.0202136 0.0103062 -0.22287 0.00125 233
1 0.233276 0.0342548 0.00156103 0.017576 -0.0370684 -0.212792 0.00125 234
1 0.14757 0.279554 0.00166811 -0.011558 0.00257493 0.10386 0.00125 235
1 0.174812 0.210857 0.002214 0.00662978 0.0028479 0.0162393 0.00125 236
1 0.145139 0.224689 0.00201172 -0.00721421 -0.0132596 -0.0774879 0.00125 237
1 0.237694 0.287542 0.00173688 0.00163447 -0.00386215 -0.220495 0.00125 238
1 0.103626 0.384802 0.00127873 -0.00345232 -0.00496816 -0.233664 0.00125 239
1 0.426493 0.160269 0.00157523 0.0230392 -0.00863975 0.098754 0.00125 240
1 0.398917 0.42507 0.00131523 -0.00777805 -0.0043766 0.173815 0.00125 241
1 0.262008 0.264713 0.00154343 0.00883484 -0.00864042 -0.284712 0.00125 242
1 0.234747 0.0118587 0.00143524 -0.0123103 0.00192873 -0.239713 0.00125 243
1 0.0962122 0.0556979 0.00126411 0.0473753 -0.0172646 -0.236865 0.00125 244
1 0.265445 0.203392 0.00136105 -0.0018381 -0.023902 -0.187225 0.00125 245
1 0.34952 0.123132 0.00155364 -0.0258784 0.0273072 -0.237939 0.00125 246
1 0.0246548 0.228207 0.00151276 -0.00264584 0.00557756 -0.0662943 0.00125 247
1 0.113126 0.307801 0.0016851 -0.00644703 -0.00839244 0.0725295 0.00125 248
1 0.100015 0.194516 0.00187068 0.00308097 0.00806045 -0.0730732 0.00125 249
1 0.112186 0.167633 0.00131026 0.00867371 0.035989 0.233095 0.00125 250
1 0.282702 0.112218 0.00123479 -0.000960622 0.000387117 0.166849 0.00125 251
1 0.0905648 0.298994 0.00157633 0.0146853 -0.0284664 -0.236613 0.00125 252
1 0.306408 0.0907772 0.00171046 -0.0220667 0.00458274 -0.272091 0.00125 253
1 0.0439735 0.202449 0.00134309 -0.00541733 -0.00779584 -0.220023 0.00125 254
1 0.22784 0.076932 0.00129189 0.000509153 0.0108474 -0.246771 0.00125 255
1 0.109267 0.402244 0.00150237 -0.0117908 -0.00812606 0.204158 0.00125 256
1 0.0401846 0.128446 0.00183675 -0.000387473 0.0181755 -0.225975 0.00125 257
1 0.269429 0.123193 0.00201975 -0.00637068 0.0065113 -0.190105 0.00125 258
1 0.0545192 0.0401723 0.00149651 -0.00372051 -0.00424666 -0.230192 0.00125 259
1 0.146459 0.305912 0.00146175 0.00963138 -0.00435497 -0.196646 0.00125 260
1 0.119009 0.435872 0.00146495 -0.00578228 -0.0146018 0.155693 0.00125 261
1 0.11836 0.268357 0.0021007 0.00141802 -0.0215414 -0.0577294 0.00125 262
1 0.0137744 0.046141 0.00228759 -0.0017023 0.0121786 -0.0640213 0.00125 263
1 0.127719 0.00420274 0.00139073 -0.0023617 -0.013145 0.156294 0.00125 264
1 0.0857273 0.0835672 0.00131428 0.0253107 0.00925544 -0.0820633 0.00125 265
1 0.399943 0.0923203 0.00143937 0.0145718 0.0212639 -0.17979 0.00125 266
1 0.345162 0.384234 0.00130868 0.00575402 -0.0011965 0.182077 0.00125 267
1 0.193137 0.281513 0.00170614 0.0057223 -0.0399935 0.0837508 0.00125 268
1 0.0626374 0.305204 0.00130874 0.0171275 -0.0261508 0.176146 0.00125 269
1 0.00372127 0.0773506 0.00151686 0.000935831 0.0135106 -0.228842 0.00125 270
1 0.356064 0.0800208 0.00207055 0.0059846 -0.00049188 -0.0330003 0.00125 271
1 0.0809806 0.381356 0.00155341 0.00237899 -0.0158515 -0.0993137 0.00125 272
1 0.308606 0.168576 0.00123499 -0.00736331 -0.00446348 -0.158682 0.00125 273
1 0.128381 0.0871419 0.00175242 -0.0173957 -0.0238382 -0.0678842 0.00125 274
1 0.329052 0.212384 0.00123434 0.01579 0.00137131 -0.14888 0.00125 275
1 0.0852131 0.0750234 0.0015456 0.00360752 -0.0166982 0.132741 0.00125 276
1 0.25978 0.299836 0.00223856 -0.00685648 -0.00425913 -0.0483914 0.00125 277
1 0.357266 0.0214336 0.001839 0.0210038 0.000390142 -0.0763248 0.00125 278
1 0.287515 0.0609587 0.00125316 0.00112392 0.00955545 0.276427 0.00125 279
1 0.0271294 0.329922 0.00131008 0.0123706 -0.00158312 0.152027 0.00125 280
1 0.0479778 0.414467 0.00124462 -0.00597163 -0.000322229 -0.219956 0.00125 281
1 0.0163419 0.0687806 0.00168011 0.00787315 -0.0218591 -0.227588 0.00125 282
1 0.301796 0.396691 0.00123476 0.0178414 -0.000796632 -0.165091 0.00125 283
1 0.256476 0.390791 0.00141405 0.0117285 0.0113665 0.173203 0.00125 284
1 0.1006 0.178569 0.00142981 0.018 0.00827892 0.219807 0.00125 285
1 0.205598 0.0445826 0.00173171 0.0154754 0.0239172 -0.267463 0.00125 286
1 0.234614 0.355621 0.00158549 -0.00137811 0.00528961 -0.0610895 0.00125 287
1 0.187534 0.257317 0.00137945 -0.0322904 -0.0157597 0.170587 0.00125 288
1 0.124619 0.386811 0.00133775 0.0147171 -0.00826734 0.175475 0.00125 289
1 0.328709 0.410347 0.0013434 -0.015435 -0.0020444 0.171238 0.00125 290
1 0.0338089 0.158757 0.00143575 -0.0267874 0.0105065 -0.239835 0.00125 291
1 0.032477 0.31755 0.00168403 0.0103285 0.0168625 -0.2742 0.00125 292
1 0.295675 0.0483188 0.00145922 0.0143826 -0.00330069 -0.298896 0.00125 293
1 0.216764 0.273105 0.00145292 0.00764794 -0.00839776 -0.181534 0.00125 294
1 0.217771 0.0607208 0.00129293 0.016293 0.00797826 0.183955 0.00125 295
1 0.0883567 0.285417 0.00123381 0.000583216 -0.0109171 0.106187 0.00125 296
1 0.260055 0.378228 0.00124961 -0.0238829 0.00286893 -0.230232 0.00125 297
1 0.218873 0.27726 0.00122526 0.00717193 -0.00864905 0.010703 0.00125 298
1 0.163515 0.393801 0.00138094 -0.014574 -0.0298682 0.133007 0.00125 299
1 0.00671689 0.36448 0.00133755 -0.00553772 0.00599507 0.141304 0.00125 300
1 0.0165598 0.376941 0.00161838 0.00733846 0.0109446 0.0959968 0.00125 301
1 0.104837 0.3263 0.00180109 -0.0520227 0.00357793 -0.0257982 0.00125 302
1 0.22552 0.125215 0.00135876 0.0271287 0.00191692 0.165332 0.00125 303
1 0.172611 0.31505 0.0021767 0.015352 -0.0274212 0.00845294 0.00125 304
1 0.0792016 0.0738368 0.00153565 -0.000270468 0.0404419 -0.189514 0.00125 305
1 0.388745 0.242292 0.00227081 0.00207908 -0.0242405 -0.136435 0.00125 306
1 0.316428 0.118436 0.00153232 -0.00910131 -0.00567443 -0.233671 0.00125 307
1 0.0755783 0.00514934 0.00140832 -0.00350077 -0.00551713 -0.229102 0.00125 308
1 0.250641 0.199097 0.00145271 0.0171881 -0.00266357 0.227865 0.00125 309
1 0.0645025 0.153706 0.00128981 0.00662241 -0.0289289 -0.221818 0.00125 310
1 0.296696 0.142322 0.00136133 0.0208585 -0.00707172 -0.186723 0.00125 311
1 0.204088 0.361548 0.00175365 -0.00991438 -0.017941 0.159606 0.00125 312
1 0.282768 0.00519172 0.00165034 0.00142477 0.00420927 0.205924 0.00125 313
1 0.0530104 0.21583 0.00137238 0.0138327 0.0040035 -0.229177 0.00125 314
1 0.0508533 0.289761 0.00172738 -0.000558597 -0.0062874 -0.0432145 0.00125 315
1 0.0285187 0.192749 0.00129348 -0.00164104 -0.00240523 -0.238304 0.00125 316
1 0.327887 0.42538 0.00141854 -0.00944949 0.00381943 0.140479 0.00125 317
1 0.348828 0.21439 0.00124407 0.0299738 0.0119983 0.193582 0.00125 318
1 0.126249 0.203217 0.00163046 0.00645061 0.00894815 0.104003 0.00125 319
1 0.0503804 0.273136 0.00158398 0.00119928 0.000640559 -0.164935 0.00125 320
1 0.046296 0.070024 0.00129199 -0.00559391 0.00660012 0.185194 0.00125 321
1 0.21281 0.0803914 0.00133799 0.0299673 -0.00326025 -0.227153 0.00125 322
1 0.328795 0.279554 0.0013016 0.0167557 0.0191809 -0.222901 0.00125 323
1 0.373473 0.198122 0.0013802 0.0169996 -0.00733008 -0.240169 0.00125 324
1 0.129098 0.314239 0.00132103 -0.00138058 0.0128408 -0.225531 0.00125 325
1 0.215627 0.23674 0.00193485 -0.0249776 -0.0117446 -0.0836305 0.00125 326
1 0.137971 0.142169 0.00169846 -0.0219167 0.0023777 -0.0910919 0.00125 327
1 0.16657 0.328624 0.0016235 -0.00800145 -0.00214056 -0.232846 0.00125 328
1 0.392444 0.235034 0.0015385 0.0019026 0.0138878 0.0571462 0.00125 329
1 0.0221624 0.143179 0.00123118 -0.00235116 0.0130789 0.0835959 0.00125 330
1 0.250117 0.326748 0.00143359 0.0189126 -0.0383347 -0.200733 0.00125 331
1 0.226399 0.257022 0.00132863 0.0013112 -0.0160329 0.202448 0.00125 332
1 0.271896 0.300159 0.00137456 -0.0194815 -0.00333625 0.160981 0.00125 333
1 0.212685 0.402808 0.0014902 0.00941159 0.0291228 0.155254 0.00125 334
1 0.302012 0.33379 0.0012314 -0.0139602 0.00682079 0.0775218 0.00125 335
1 0.0712671 0.362924 0.00139127 0.0178414 0.0107124 -0.23533 0.00125 336
1 0.409016 0.251235 0.00131219 -0.00132556 -0.00428889 -0.202342 0.00125 337
1 0.263594 0.176045 0.00217156 0.0135952 0.0162661 -0.191398 0.00125 338
1 0.107905 0.0188379 0.00197117 0.0300627 -0.0509991 -0.196277 0.00125 339
1 0.316145 0.113939 0.00151416 -0.0225396 -0.0079473 0.156164 0.00125 340
1 0.271449 0.346 0.00135584 0.0137332 -0.00281413 0.0367346 0.00125 341
1 0.0368879 0.234092 0.00150057 0.0172704 -0.00270624 -0.295027 0.00125 342
1 0.158011 0.24987 0.00154219 -0.000441028 0.00188518 -0.188954 0.00125 343
1 0.0271376 0.0817742 0.00186778 0.0165107 0.00621435 -0.0798036 0.00125 344
1 0.260402 0.225539 0.00138687 0.0109095 -0.0100531 0.156994 0.00125 345
1 0.142164 0.0427957 0.00124589 0.00270857 0.0212364 -0.223397 0.00125 346
1 0.230061 0.15456 0.00151079 0.0192917 0.0131 -0.11851 0.00125 347
1 0.151741 0.124762 0.00173711 0.0101996 -0.00456138 -0.182843 0.00125 348
1 0.224524 0.166806 0.00174598 0.0176111 -0.00477258 0.114751 0.00125 349
1 0.200408 0.332631 0.00123449 -0.00127065 -0.0101974 -0.143717 0.00125 350
1 0.373321 0.3666 0.00202845 -0.00249646 0.0119828 -0.0573538 0.00125 351
1 0.125051 0.155866 0.00188829 0.00192421 0.000652571 -0.0288886 0.00125 352
1 0.185389 0.012216 0.00147036 0.00284311 0.00691399 -0.229261 0.00125 353
1 0.3252 0.392558 0.00135675 -0.000854936 0.000447849 -0.23583 0.00125 354
1 0.135769 0.23709 0.00125345 -0.00760945 0.0114417 0.181188 0.00125 355
1 0.104658 0.340225 0.00132329 -0.00474404 0.0228299 -0.223361 0.00125 356
1 0.364518 0.183218 0.00127012 0.0067501 0.00912875 -0.229924 0.00125 357
1 0.152039 0.0890638 0.00185682 0.00818059 0.032524 -0.206926 0.00125 358
1 0.238908 0.036259 0.00171969 -0.0141851 -0.00142556 -0.161423 0.00125 359
1 0.258595 0.362224 0.00138725 -0.0053556 -0.0104572 -0.239852 0.00125 360
1 0.403078 0.0522253 0.00173701 -0.0177439 0.0175952 -0.219495 0.00125 361
1 0.0450407 0.324392 0.00127639 0.00464622 0.00801201 -0.232845 0.00125 362
1 0.303152 0.307324 0.00206467 0.0188887 0.0736965 -0.12393 0.00125 363
1 0.00635455 0.12232 0.00134021 0.00449596 0.00672768 0.172542 0.00125 364
1 0.163642 0.323488 0.00134379 -0.0115257 -0.00679149 0.0670454 0.00125 365
1 0.325646 0.213254 0.00125137 -0.0080228 0.00731739 0.204035 0.00125 366
1 0.341283 0.321746 0.00146518 -0.0160409 0.0191272 0.219852 0.00125 367
1 0.14847 0.0254413 0.00182125 0.0704434 -0.0138625 -0.210343 0.00125 368
1 0.350666 0.165292 0.00131185 0.00713404 0.00532183 -0.249976 0.00125 369
1 0.319652 0.139627 0.00126922 0.00417085 -0.00531803 -0.197887 0.00125 370
1 0.434504 0.143935 0.00137765 0.0078962 0.0159605 -0.228341 0.00125 371
1 0.275629 0.1807 0.00172027 0.00276336 0.0055739 -0.269231 0.00125 372
1 0.229915 0.120783 0.00153721 -0.00825434 0.016003 0.0575565 0.00125 373
1 0.335239 0.395285 0.00131965 -0.00594256 -0.00321589 0.179284 0.00125 374
1 0.194885 0.391797 0.00237613 -0.000882354 -0.0197593 -0.0481747 0.00125 375
1 0.315666 0.258521 0.00189261 0.00320911 -0.00621448 -0.0761149 0.00125 376
1 0.00196585 0.0473273 0.00143362 0.012064 0.00201141 -0.23051 0.00125 377
1 0.427642 0.193232 0.00154638 0.00181015 0.00096122 0.0986278 0.00125 378
1 0.170554 0.151355 0.00123398 -0.0417267 0.0372771 0.193947 0.00125 379
1 0.139532 0.0605319 0.00152118 -0.0125764 -0.0414776 0.051991 0.00125 380
1 0.0706074 0.41528 0.00134452 -0.0137183 0.000216321 -0.203939 0.00125 381
1 0.357582 0.427221 0.00216814 -0.00594757 0.0260414 -0.0546996 0.00125 382
1 0.0622262 0.355508 0.00204822 0.0054882 0.00970024 -0.18283 0.00125 383
1 0.213971 0.257373 0.00138536 -0.0380285 -0.00983249 -0.273752 0.00125 384
1 0.144421 0.262782 0.00135468 0.00608044 0.012021 0.183615 0.00125 385
1 0.374728 0.207887 0.00153718 -0.0069216 -0.0133099 -0.289205 0.00125 386
1 0.138561 0.0449525 0.00138179 -0.050506 -0.0120858 0.14887 0.00125 387
1 0.119831 0.164687 0.00144836 0.0179308 -2.80036e-05 0.205932 0.00125 388
1 0.30539 0.272709 0.00186506 -0.000442602 0.0318084 -0.245951 0.00125 389
1 0.264729 0.294746 0.00140221 0.0100883 -0.00920435 -0.22468 0.00125 390
1 0.377895 0.00601035 0.0016975 0.0105466 -0.00919231 0.0996408 0.00125 391
1 0.0839302 0.255058 0.00193203 -0.00590173 0.0117538 -0.202649 0.00125 392
1 0.372512 0.421708 0.00127768 0.0126702 -0.00330587 0.172237 0.00125 393
1 0.204198 0.0166975 0.00195061 -0.000324526 -0.0271299 -0.0766386 0.00125 394
1 0.104445 0.102122 0.00162275 0.0213187 0.0402166 -0.165274 0.00125 395
1 0.130158 0.43173 0.00216262 -0.0148369 -0.000439532 -0.0557317 0.00125 396
1 0.355301 0.120725 0.00238878 0.019404 0.00778717 -0.0364854 0.00125 397
1 0.30668 0.27563 0.00144205 0.0153784 0.000837448 0.22914 0.00125 398