ITEM: TIMESTEP
1000000
ITEM: NUMBER OF ATOMS
10000
ITEM: BOX BOUNDS pp pp ff
0.0000000000000000e+00 3.0466395000000002e-01
0.0000000000000000e+00 3.0466395000000002e-01
-1.2500000000000001e-02 1.2500000000000001e-02
ITEM: ATOMS type x y z vx vy vz radius id
1 0.189899 0.0177372 0.00126575 0.0106971 0.0190155 -0.290526 0.00125 1
1 0.0128601 0.064815 0.00247377 -0.00785964 -0.0378319 -0.0296108 0.00125 2
1 0.106694 0.235216 0.00228739 -0.0515835 0.0238101 -0.102685 0.00125 3
1 0.0419503 0.248918 0.00132684 0.0152509 -0.0285107 -0.0807683 0.00125 4
1 0.0282218 0.100478 0.00122771 0.0234165 0.0075452 0.0142348 0.00125 5
1 0.0752947 0.106298 0.00137998 -0.0168979 -0.033435 -0.0704573 0.00125 6
1 0.173513 0.153914 0.00229954 0.0295034 0.0192564 -0.144118 0.00125 7
1 0.196256 0.191144 0.00170458 0.0273357 -0.0310463 -0.217579 0.00125 8
1 0.238396 0.286562 0.00144485 0.0327924 -0.0301573 0.10044 0.00125 9
1 0.205216 0.194035 0.00168289 0.0305646 0.0117141 -0.187407 0.00125 10
1 0.18717 0.144674 0.00180131 -0.0695655 -0.0627297 -0.146255 0.00125 11
1 0.187422 0.210172 0.00170371 0.0407475 0.00412749 -0.0745954 0.00125 12
1 0.166653 0.201626 0.00123471 0.00767436 -0.00156528 -0.155392 0.00125 13
1 0.0184405 0.130554 0.00176072 -0.00714272 0.024706 -0.0815919 0.00125 14
1 0.173652 0.136782 0.00132043 0.0162216 -0.00470947 0.0210513 0.00125 15
1 0.0149233 0.167678 0.00130454 0.0173353 -0.0131886 0.190502 0.00125 16
1 0.127458 0.027844 0.00190918 -0.0813204 -0.0511322 -0.0702099 0.00125 17
1 0.251025 0.168399 0.00179953 -0.0269786 -0.0171191 0.141207 0.00125 18
1 0.148132 0.170115 0.00139406 -0.0605001 0.0685727 -0.231298 0.00125 19
1 0.299753 0.0890719 0.00246925 -0.00441519 -0.00583055 -0.0719234 0.00125 20
1 0.0678221 0.241704 0.00171991 -0.0259491 0.0287229 0.109718 0.00125 21
1 0.27441 0.0664691 0.00201106 -0.0232198 0.0248575 -0.0853272 0.00125 22
1 0.0977296 0.123533 0.00176187 -0.062332 0.0345754 -0.0938507 0.00125 23
1 0.136991 0.134068 0.00224039 -0.00556216 0.0298324 -0.174239 0.00125 24
1 0.015598 0.103461 0.00138103 -0.0224209 0.00568029 0.237216 0.00125 25
1 0.170579 0.0553615 0.00138286 -0.0198542 0.00774855 0.189391 0.00125 26
1 0.00449323 0.213022 0.00148401 -0.0327365 0.00939286 -0.228734 0.00125 27
1 0.112014 0.0511328 0.00126847 -0.0196027 0.00683442 0.16223 0.00125 28
1 0.30205 0.126966 0.00159724 -0.0676857 0.104217 0.053711 0.00125 29
1 0.205328 0.0956961 0.00146804 -0.0169004 -0.0535351 0.159146 0.00125 30
1 0.094347 0.23252 0.00126132 -0.0156964 0.0253266 -0.249881 0.00125 31
1 0.0025092 0.294351 0.00127131 0.011601 0.0350891 -0.275029 0.00125 32
1 0.303238 0.0157364 0.00153952 0.0498734 -0.00751251 -0.228103 0.00125 33
1 0.186553 0.071758 0.00194655 0.000681498 -0.000784585 -0.0632603 0.00125 34
1 0.261527 0.0397264 0.0014783 -0.0085397 0.00491854 0.120173 0.00125 35
1 0.27211 0.0134909 0.00125039 -0.0012597 0.0847248 0.229851 0.00125 36
1 0.247413 0.148529 0.00172242 0.00630752 0.00134633 -0.219719 0.00125 37
1 0.27443 0.138163 0.00151999 -0.000910497 -0.00950614 0.100481 0.00125 38
1 0.27582 0.121242 0.00159762 0.000799978 0.00361258 0.224622 0.00125 39
1 0.224309 0.175586 0.00140489 0.0098505 0.00227964 -0.178771 0.00125 40
1 0.0378715 0.249632 0.00148481 -0.00830297 0.0149874 0.167285 0.00125 41
1 0.235296 0.295218 0.00244655 0.0144321 0.00217622 -0.0228018 0.00125 42
1 0.185862 0.257044 0.00123933 -0.00357823 0.0269351 0.215849 0.00125 43
1 0.253788 0.137913 0.00144896 0.00878921 0.013268 -0.242848 0.00125 44
1 0.0866917 0.0209905 0.00193176 -0.0191845 -0.061227 -0.050469 0.00125 45
1 0.289914 0.301646 0.00157055 0.0776506 0.0746469 0.0681828 0.00125 46
1 0.22776 0.206544 0.00141343 -0.0119388 -0.0780439 0.140215 0.00125 47
1 0.0284032 0.072615 0.00213558 -0.0126317 0.0396296 -0.0647475 0.00125 48
1 0.0308621 0.113609 0.00185148 -0.00826318 0.0319257 -0.205315 0.00125 49
1 0.233108 0.105569 0.00128994 -0.045017 0.0155844 -0.0362911 0.00125 50
1 0.202018 0.0299034 0.00178199 -0.0278653 -0.109589 -0.145169 0.00125 51
1 0.111163 0.0694633 0.00239783 -0.0592885 -0.0303183 -0.00491159 0.00125 52
1 0.263924 0.225488 0.00134938 -0.0263425 0.0203397 -0.147125 0.00125 53
1 0.19223 0.288221 0.00207389 -0.0701074 0.0752247 -0.0877743 0.00125 54
1 0.266554 0.206349 0.0012505 -0.0202702 -0.0179076 0.194358 0.00125 55
1 0.164863 0.071724 0.001246 -0.0445169 -0.0534696 0.0390771 0.00125 56
1 0.217266 0.109602 0.00238163 0.0247505 0.0920949 -0.135858 0.00125 57
1 0.00977016 0.25917 0.00155771 0.0248006 -0.00743217 0.1676 0.00125 58
1 0.277362 0.241498 0.00179722 -0.0192562 -0.00844704 0.14373 0.00125 59
1 0.0866284 0.109394 0.00127653 -0.00502723 -0.0368909 0.104378 0.00125 60
1 0.157006 0.0791988 0.0019881 -0.0403629 0.0120057 -0.0607278 0.00125 61
1 0.142714 0.26199 0.00168093 0.0537626 0.0426188 -0.141321 0.00125 62
1 0.103636 0.00574037 0.00140469 -0.0112624 0.0164586 -0.292588 0.00125 63
1 0.061858 0.0291375 0.0016202 0.0459792 0.0423957 0.0696683 0.00125 64
1 0.169142 0.260044 0.00158955 -0.0188207 -0.00440711 -0.238239 0.00125 65
1 0.103671 0.13023 0.00152713 -0.0225769 -0.0470876 0.202281 0.00125 66
1 0.275282 0.0856801 0.00247336 -0.00291258 0.06007 -0.0406738 0.00125 67
1 0.0189061 0.0665401 0.00229583 0.0533802 0.0150208 -0.124031 0.00125 68
1 0.107716 0.123613 0.00181588 -0.0444958 0.0689029 -0.134348 0.00125 69
1 0.148536 0.0960982 0.00181777 -0.0018405 -0.0327014 -0.171573 0.00125 70
1 0.0522272 0.167502 0.00160561 -0.0562572 -0.0653696 -0.168411 0.00125 71
1 0.254172 0.149974 0.0014615 -0.0415744 -0.0313115 -0.152083 0.00125 72
1 0.135124 0.165278 0.00162419 -0.0302054 0.0231295 -0.186502 0.00125 73
1 0.226371 0.063485 0.00131465 0.0127971 -0.0166827 0.202046 0.00125 74
1 0.0423372 0.0872669 0.00138698 0.0751925 0.00240309 0.203227 0.00125 75
1 0.0653888 0.240512 0.00170242 -0.00288233 -0.0484421 -0.0688783 0.00125 76
1 0.134002 0.0277909 0.00205077 -0.0340588 -0.0203957 -0.184128 0.00125 77
1 0.166415 0.144488 0.00176807 -0.0245002 0.0140848 -0.0289761 0.00125 78
1 0.00654758 0.0655621 0.00141066 0.057769 -0.0186085 0.189208 0.00125 79
1 0.0162639 0.0387188 0.00162077 0.0500101 -0.0198437 -0.0824419 0.00125 80
1 0.104845 0.0894105 0.00170318 -0.00387145 -0.0131639 -0.265514 0.00125 81
1 0.106772 0.0688854 0.0013049 0.00245478 0.017759 -0.223313 0.00125 82
1 0.101873 0.0412369 0.00137722 0.00804399 0.0457503 0.0188498 0.00125 83
1 0.000850782 0.245005 0.00183707 -0.0291334 0.120615 -0.120081 0.00125 84
1 0.14276 0.196543 0.00196695 0.0162637 -0.0229045 -0.0693875 0.00125 85
1 0.293422 0.191997 0.00123164 -0.0170558 -0.0145603 0.0706106 0.00125 86
1 0.127311 0.0315824 0.00123177 0.00422613 0.019505 0.0619725 0.00125 87
1 0.265129 0.298811 0.00145041 0.00583514 0.0161665 -0.245475 0.00125 88
1 0.215139 0.0497293 0.00151466 0.0281072 -0.0560831 -0.0944593 0.00125 89
1 0.0692703 0.0540496 0.00150729 -0.0538899 0.0952071 -0.124406 0.00125 90
1 0.206909 0.210873 0.00132635 0.000865741 0.00579277 0.189689 0.00125 91
1 0.0482331 0.153799 0.00139903 -0.0448882 0.0207724 0.0397441 0.00125 92
1 0.0224965 0.0705183 0.0019207 -0.00033997 -0.00900839 -0.212293 0.00125 93
1 0.212295 0.108407 0.00134107 -0.0054517 0.00706909 0.0811892 0.00125 94
1 0.190039 0.295357 0.00184358 0.0110365 0.00945215 -0.245967 0.00125 95
1 0.162316 0.124422 0.00131542 -0.001618 -0.0257149 0.178 0.00125 96
1 0.30244 0.229831 0.00146593 0.0178564 -0.036735 -0.115256 0.00125 97
1 0.248242 0.196809 0.00178465 0.0637166 0.0474552 -0.170913 0.00125 98
1 0.0956318 0.268725 0.00175495 0.0107093 -0.0474012 -0.0560925 0.00125 99
1 0.0994261 0.284661 0.00208146 0.0154449 0.00429415 -0.194562 0.00125 100
1 0.108508 0.183807 0.00134326 -0.0312179 -0.0172483 -0.17587 0.00125 101
1 0.059588 0.153181 0.00157043 0.00392374 -0.0134348 -0.240243 0.00125 102
1 0.0524191 0.259506 0.00178898 -0.0263621 0.0649952 0.137698 0.00125 103
1 0.303263 0.0773318 0.00147488 -0.0277688 -0.0460762 -0.121458 0.00125 104
1 0.204347 0.24787 0.00149639 -0.0214189 0.0937965 -0.0728841 0.00125 105
1 0.220923 0.145194 0.0023736 0.00145937 -0.0122013 -0.0393816 0.00125 106
1 0.0885705 0.154156 0.00158778 0.0290348 -0.00610547 0.0937437 0.00125 107
1 0.134105 0.0625192 0.00134577 0.0101567 -0.00220049 0.133586 0.00125 108
1 0.293429 0.252269 0.00218211 0.0374058 -0.0624852 -0.171978 0.00125 109
1 0.240882 0.217869 0.00183941 0.0413981 -0.0147193 -0.200124 0.00125 110
1 0.0241642 0.146456 0.00144145 0.0193677 -0.0600964 0.144594 0.00125 111
1 0.180228 0.240918 0.00175954 -0.000101086 -0.00058502 0.126852 0.00125 112
1 0.229525 0.173814 0.00240175 0.0230163 0.000844992 -0.0911108 0.00125 113
1 0.199837 0.140144 0.00162139 -0.0623422 0.0392432 -0.200508 0.00125 114
1 0.299476 0.0568178 0.00144174 0.0688066 0.0153702 0.213595 0.00125 115
1 0.161132 0.23109 0.00161582 0.0369669 -0.0249428 -0.116331 0.00125 116
1 0.118621 0.194746 0.00215888 0.0113771 0.0519851 -0.0217932 0.00125 117
1 0.0798255 0.0449919 0.00151032 -0.000812036 -0.0230616 0.110938 0.00125 118
1 0.154405 0.0102961 0.00139556 0.0279115 0.038905 -0.227725 0.00125 119
1 0.0582379 0.0276441 0.00142658 -0.0303412 -0.0251537 0.24864 0.00125 120
1 0.235946 0.16955 0.00137914 0.0451889 -0.0405734 -0.183472 0.00125 121
1 0.119332 0.283594 0.00220111 -0.0149793 -0.113034 -0.0501807 0.00125 122
1 0.112041 0.100162 0.0013113 -0.0052289 0.0371701 0.111592 0.00125 123
1 0.292509 0.112055 0.00134218 0.0310537 0.0235148 -0.200664 0.00125 124
1 0.00936413 0.123516 0.0012659 0.0232155 -0.00685147 -0.292411 0.00125 125
1 0.294201 0.294904 0.00149004 -0.0693392 0.0235664 0.0361376 0.00125 126
1 0.212993 0.00622189 0.00122711 -0.00228026 0.0156879 0.124589 0.00125 127
1 0.00238661 0.190154 0.00134513 -0.0111887 0.00183136 0.184977 0.00125 128
1 0.0805721 0.187959 0.00145308 -0.021346 0.00702496 0.189477 0.00125 129
1 0.174139 0.145863 0.00128958 -0.0172696 0.00060381 0.0482008 0.00125 130
1 0.053503 0.244139 0.00150489 -0.0106476 -0.0585004 0.121688 0.00125 131
1 0.00600307 0.0806181 0.00122885 0.00883905 0.0307688 -0.0996299 0.00125 132
1 0.173514 0.0839271 0.00143416 0.0314155 -0.0293684 0.148259 0.00125 133
1 0.269909 0.289498 0.00137104 -0.0247477 0.067172 -0.218689 0.00125 134
1 0.133725 0.198451 0.00158372 -0.041055 0.00284942 -0.217554 0.00125 135
1 0.253467 0.0267467 0.00188323 -0.0151295 -0.0118912 -0.201582 0.00125 136
1 0.1107 0.123216 0.00194649 -0.0233826 -0.0483977 -0.18603 0.00125 137
1 0.19951 0.240219 0.00230883 0.0157067 0.0215034 -0.000151154 0.00125 138
1 0.107683 0.0986829 0.00139214 0.0213757 -0.0276714 0.159291 0.00125 139
1 0.0439385 0.0249728 0.00153256 0.0187861 -0.050484 -0.199649 0.00125 140
1 0.0189913 0.017797 0.00207917 0.0679218 0.00785589 -0.178875 0.00125 141
1 0.0231936 0.290528 0.001856 0.0190569 -0.00132121 -0.0536156 0.00125 142
1 0.0159718 0.140558 0.001396 0.024241 -0.0301733 0.169677 0.00125 143
1 0.00186234 0.158436 0.00151963 0.0346654 0.0535795 -0.169052 0.00125 144
1 0.0860062 0.274622 0.00159929 -0.00935534 -0.0148139 -0.160624 0.00125 145
1 0.0877986 0.20099 0.00130079 -0.000904705 -0.0220819 0.00386799 0.00125 146
1 0.0127389 0.172556 0.00142169 -0.00733521 -0.0104343 0.0274813 0.00125 147
1 0.110928 0.0648003 0.00145258 -0.0309589 0.0258476 -0.256799 0.00125 148
1 0.0674422 0.273833 0.00248619 -0.0167779 0.00310352 -0.00895308 0.00125 149
1 0.0258595 0.0997845 0.00163239 -0.0114627 -0.0606391 -0.215764 0.00125 150
1 0.0182653 0.103554 0.00134484 -0.0161469 -0.0306223 0.238538 0.00125 151
1 0.136887 0.214559 0.00130674 -0.000585033 -0.0435431 0.204008 0.00125 152
1 0.0326288 0.203763 0.00217193 0.00129652 0.0109494 -0.167032 0.00125 153
1 0.286217 0.279824 0.00239122 0.0453793 0.0240415 -0.0958717 0.00125 154
1 0.195188 0.258922 0.00164505 0.0543176 -0.0208482 -0.197473 0.00125 155
1 0.25266 0.00176075 0.00238935 0.000696778 0.0219496 0.00287561 0.00125 156
1 0.145687 0.248415 0.00178432 0.012275 0.0332942 -0.0942444 0.00125 157
1 0.237913 0.0651071 0.00244789 0.0547767 0.00626411 -0.0303412 0.00125 158
1 0.0925823 0.167016 0.0021919 0.00296023 -0.0245557 -0.0641952 0.00125 159
1 0.172072 0.0419114 0.00214092 0.0388577 0.006657 -0.155541 0.00125 160
1 0.0904527 0.29658 0.00123217 0.00167268 0.00279887 -0.0918734 0.00125 161
1 0.124013 0.263942 0.0013032 0.0036038 0.00548957 0.213395 0.00125 162
1 0.0773631 0.0494819 0.00136194 -0.0162035 0.013458 -0.309149 0.00125 163
1 0.0113116 0.238388 0.00145152 -0.045638 0.0603343 -0.26415 0.00125 164
1 0.242886 0.215899 0.00127944 -0.00336376 -0.033927 0.0621032 0.00125 165
1 0.0915835 0.287885 0.00166711 0.0473111 -0.0313111 -0.1111 0.00125 166
1 0.25355 0.0197987 0.00153945 0.0178804 0.0370771 -0.175195 0.00125 167
1 0.184162 0.193257 0.001378 0.0119428 -0.0142626 0.206042 0.00125 168
1 0.278982 0.000744251 0.00125456 -0.0429663 -0.0507754 -0.232492 0.00125 169
1 0.207698 0.227303 0.00146075 0.0103346 0.0115778 0.140204 0.00125 170
1 0.0351646 0.0537612 0.00215121 -0.0317192 0.00380219 -0.0556193 0.00125 171
1 0.175679 0.0175571 0.00177485 -0.0180242 0.00890273 -0.207569 0.00125 172
1 0.278174 0.210813 0.00165451 -0.014533 -0.00337732 -0.0735474 0.00125 173
1 0.0305242 0.0707738 0.00147787 0.0266445 -0.0247623 0.09186 0.00125 174
1 0.0054911 0.246916 0.00161002 0.00799816 0.00933664 -0.23505 0.00125 175
1 0.179935 0.0676208 0.00145139 -0.0495255 -0.0763549 -0.153823 0.00125 176
1 0.204135 0.0414519 0.00137935 -0.0297356 0.0252074 0.255953 0.00125 177
1 0.0290532 0.104071 0.00143008 -0.0410644 -0.0486282 -0.119851 0.00125 178
1 0.114103 0.220112 0.00136858 -0.0128924 -0.00357477 -0.223031 0.00125 179
1 0.0238576 0.233711 0.00143997 0.00837267 -0.0275325 -0.1687 0.00125 180
1 0.237713 0.15027 0.00169689 -0.00966502 0.000343438 -0.174644 0.00125 181
1 0.154563 0.1434 0.00169381 0.017292 -0.00629874 -0.229047 0.00125 182
1 0.296368 0.04752 0.00123929 -0.0269714 -0.00927393 -0.258994 0.00125 183
1 0.118658 0.0109506 0.00142699 -0.0491847 -0.0125102 -0.245168 0.00125 184
1 0.0501403 0.168891 0.00150295 0.0057716 -0.0246234 0.122677 0.00125 185
1 0.016393 0.271435 0.00204283 0.000587831 0.0185355 -0.185893 0.00125 186
1 0.304385 0.00377072 0.00130943 -0.0226791 0.00282507 -0.246289 0.00125 187
1 0.162778 0.226765 0.00226354 0.0318289 0.0181243 -0.0192695 0.00125 188
1 0.049882 0.0358063 0.00123802 -0.0322383 -0.0449767 -0.19611 0.00125 189
1 0.0715442 0.243132 0.00153988 -0.0131985 -0.0536814 -0.049893 0.00125 190
1 0.11008 0.17757 0.00186025 -0.0564455 -0.02673 -0.204121 0.00125 191
1 0.21702 0.270162 0.001277 0.00485763 0.010303 0.281811 0.00125 192
1 0.0273816 0.0818261 0.00176111 -0.0602997 -0.0117886 -0.183015 0.00125 193
1 0.222282 0.133608 0.00185199 0.0214172 0.0235945 -0.166465 0.00125 194
1 0.136776 0.0138601 0.0018715 0.0402946 0.0354607 -0.217675 0.00125 195
1 0.109246 0.0162639 0.00126097 0.00470781 0.00748431 -0.228457 0.00125 196
1 0.276738 0.15329 0.00153281 -0.0273952 -0.00259043 -0.182224 0.00125 197
1 0.0977192 0.274942 0.00151941 -0.0157835 -0.0240246 -0.236332 0.00125 198
1 0.01816 0.232568 0.00155258 -0.0107834 0.00389384 -0.236991 0.00125 199
1 0.163731 0.0369144 0.00205765 -0.0199306 0.0357064 -0.182155 0.00125 200
1 0.241398 0.154199 0.00183313 -0.0451147 -0.00773018 -0.153931 0.00125 201
1 0.105306 0.221745 0.00133766 -0.0742253 0.0362888 0.237215 0.00125 202
1 0.279428 0.102193 0.00202307 -0.10678 0.0643694 -0.135645 0.00125 203
1 0.268986 0.0307521 0.00142436 0.0105005 0.00671183 -0.236865 0.00125 204
1 0.0378953 0.209032 0.00156615 0.0229193 0.0364398 0.0173813 0.00125 205
1 0.184429 0.17829 0.00181477 -0.0621987 -0.0672106 -0.0781374 0.00125 206
1 0.123576 0.0121422 0.00130867 0.00990158 0.0279768 0.139281 0.00125 207
1 0.000704848 0.200226 0.0015275 -0.00681299 -0.0122474 -0.112513 0.00125 208
1 0.0487467 0.223903 0.00159856 0.0195662 0.000677916 -0.233314 0.00125 209
1 0.254509 0.220115 0.00169608 -0.0314583 -0.00883109 0.0951624 0.00125 210
1 0.0927939 0.00104348 0.00141366 -0.0329059 -0.0154029 0.133229 0.00125 211
1 0.0527481 0.125363 0.00162999 -0.00222442 0.000464981 0.0659755 0.00125 212
1 0.244659 0.179456 0.00167604 0.0108266 0.00372479 0.106066 0.00125 213
1 0.303137 0.116259 0.00140855 0.00247733 0.01608 -0.23462 0.00125 214
1 0.156264 0.0369841 0.00147316 0.0031792 -0.00196437 -0.264805 0.00125 215
1 0.130892 0.259683 0.00167378 -0.0215977 -0.0334274 -0.162905 0.00125 216
1 0.247538 0.0559555 0.00190471 -0.0379693 0.0123716 -0.19439 0.00125 217
1 0.104938 0.0655985 0.00161503 -0.00190051 0.0199757 -0.0685026 0.00125 218
1 0.302753 0.0691279 0.0017176 -0.0489282 0.0503405 0.0543444 0.00125 219
1 0.0867494 0.0696416 0.00211224 0.0606559 0.0262186 -0.0223772 0.00125 220
1 0.203553 0.199113 0.00124955 0.0075747 0.0322555 -0.103032 0.00125 221
1 0.286865 0.049083 0.00130388 0.0249426 -0.0373917 -0.0910064 0.00125 222
1 0.101725 0.178324 0.00134922 -0.0410774 -0.047348 -0.10022 0.00125 223
1 0.25579 0.112728 0.00173332 0.00932606 -0.0410437 -0.0830416 0.00125 224
1 0.254642 0.125204 0.00162019 0.0130006 0.0178478 -0.265277 0.00125 225
1 0.262283 0.100318 0.00214287 0.026326 0.00701286 -0.198659 0.00125 226
1 0.152301 0.0552713 0.00123519 0.012037 -0.0665809 0.13757 0.00125 227
1 0.220633 0.0985474 0.00182383 -0.0236265 -0.060216 -0.096904 0.00125 228
1 0.216118 0.121105 0.00151868 -0.00824864 -0.0068028 -0.190443 0.00125 229
1 0.108864 0.0706257 0.00246755 0.0267679 0.0165789 -0.0181963 0.00125 230
1 0.137125 0.200024 0.00181745 -0.0110469 0.0193718 -0.211763 0.00125 231
1 0.0155397 0.216675 0.00211342 0.0402845 0.0121045 -0.104842 0.00125 232
1 0.114185 0.00894742 0.00238129 -0.0125709 -0.0022334 -0.101611 0.00125 233
1 0.170638 0.0139481 0.00137113 7.53552e-05 0.0352245 -0.259394 0.00125 234
1 0.257203 0.238324 0.00123702 -0.00296431 -0.0184477 0.00757396 0.00125 235
1 0.265718 0.21013 0.0012711 -0.0452268 -0.0698615 -0.0344085 0.00125 236
1 0.202354 0.207216 0.00187499 0.0234903 0.0206049 -0.214978 0.00125 237
1 0.222385 0.0267296 0.00215324 0.00214492 0.00211883 -0.0644615 0.00125 238
1 0.112602 0.0271757 0.00142425 0.0252491 -0.0153628 -0.257085 0.00125 239
1 0.258264 0.273587 0.00127804 -0.0220638 -0.00561142 -0.241465 0.00125 240
1 0.227001 0.0153754 0.00247082 -0.0737423 0.0361264 -0.0674522 0.00125 241
1 0.128353 0.0162498 0.00246185 0.0974714 0.0642997 -0.0328188 0.00125 242
1 0.129979 0.0891546 0.00230962 0.0306639 -0.025075 -0.0535289 0.00125 243
1 0.23247 0.0476428 0.00215565 0.0500198 0.0124561 -0.0141892 0.00125 244
1 0.0480722 0.0613278 0.00215159 -0.000581787 0.0269257 -0.0571646 0.00125 245
1 0.217259 0.00888557 0.00238308 -0.00665427 0.0458577 -0.0585249 0.00125 246
1 0.0607039 0.293305 0.0015925 0.0479759 -0.0158435 -0.115236 0.00125 247
1 0.301596 0.193317 0.00150367 -0.0170568 -0.0212964 -0.240913 0.00125 248
1 0.135853 0.283396 0.00241177 0.00944263 0.0313619 -0.0333726 0.00125 249
1 0.211585 0.143404 0.00156247 -0.00952176 -0.0298926 -0.170141 0.00125 250
1 0.00781404 0.125716 0.00195096 0.0123104 0.015634 -0.201243 0.00125 251
1 0.210786 0.0880953 0.00136227 -0.0407612 -0.0110764 0.0826058 0.00125 252
1 0.272521 0.00737216 0.00133042 0.0122013 -0.0292929 -0.277164 0.00125 253
1 0.175493 0.249035 0.00217667 -0.0468912 0.0264627 -0.0998239 0.00125 254
1 0.115015 0.0379952 0.00134063 0.0245306 -0.0162155 -0.298956 0.00125 255
1 0.246748 0.266812 0.00134848 0.0115638 0.0489617 -0.245093 0.00125 256
1 0.176139 0.0835209 0.00202849 0.0087952 0.110755 -0.168761 0.00125 257
1 0.0571805 0.184607 0.00158616 0.0963832 -0.00298871 -0.194071 0.00125 258
1 0.138021 0.125252 0.00148988 -0.0927676 0.0521382 0.200467 0.00125 259
1 0.0332133 0.011668 0.00204284 -0.0507012 -0.058951 -0.187881 0.00125 260
1 0.209048 0.232675 0.00190063 0.074315 -0.0213373 -0.206671 0.00125 261
1 0.0528442 0.0436144 0.00144322 -0.000592854 0.0144722 -0.195973 0.00125 262
1 0.0454465 0.0346995 0.00163072 0.019684 -0.0229073 -0.258388 0.00125 263
1 0.220283 0.07612 0.00123095 0.00416524 0.00464182 -0.00210548 0.00125 264
1 0.268418 0.161292 0.00141239 -0.021668 0.00639697 -0.212838 0.00125 265
1 0.130374 0.0491952 0.00128235 -0.000979051 0.0132676 0.172408 0.00125 266
1 0.0331575 0.271012 0.00136689 0.0390677 -0.00743213 0.157062 0.00125 267
1 0.154368 0.192431 0.00128107 0.056638 0.0089053 -0.216998 0.00125 268
1 0.0468625 0.304285 0.00160214 -0.060012 0.000237893 -0.125274 0.00125 269
1 0.261083 0.138039 0.00127946 -0.0127873 -0.035214 -0.188514 0.00125 270
1 0.273979 0.0424471 0.00141113 -0.00789431 -0.00672176 -0.251549 0.00125 271
1 0.157698 0.0111439 0.00124357 -0.0186552 -0.00606157 -0.223752 0.00125 272
1 0.0277843 0.196079 0.00124163 0.00374522 -0.00501902 0.017127 0.00125 273
1 0.177928 0.136015 0.00133012 0.0176082 -0.0100948 -0.243892 0.00125 274
1 0.287677 0.26326 0.00156538 -0.0118901 0.00863601 0.102474 0.00125 275
1 0.0703325 0.113287 0.00126658 0.0708924 0.0403349 -0.0476724 0.00125 276
1 0.133519 0.247103 0.00197972 0.0262657 0.0601221 -0.145339 0.00125 277
1 0.235445 0.0250734 0.00136395 0.00364133 0.00627891 0.174767 0.00125 278
1 0.120503 0.0133234 0.00155074 0.0728377 0.0137199 -0.219048 0.00125 279
1 0.0483097 0.0205621 0.00155176 0.00786144 -0.0088019 0.141899 0.00125 280
1 0.113982 0.236369 0.00210517 0.0156902 -0.0274606 -0.0597422 0.00125 281
1 0.0621123 0.252119 0.00132397 -0.0613978 -0.0304556 -0.218167 0.00125 282
1 0.0737471 0.136079 0.00139038 0.0373302 0.00599546 0.263961 0.00125 283
1 0.0293176 0.172303 0.00210169 0.0293655 -0.00661483 -0.0888066 0.00125 284
1 0.302955 0.177147 0.00149713 0.000276514 -0.0336593 0.200895 0.00125 285
1 0.285751 0.252588 0.00122967 0.00290119 0.00282718 -0.0331769 0.00125 286
1 0.253052 0.185404 0.0016246 0.00795277 0.00817439 0.106664 0.00125 287
1 0.00240812 0.116816 0.00213426 -0.00896747 0.00911451 -0.196851 0.00125 288
1 0.222701 0.0510888 0.00170081 0.0215119 -0.0305535 -0.162252 0.00125 289
1 0.126909 0.20765 0.00148236 -0.00165802 -0.00676479 0.120731 0.00125 290
1 0.00612821 0.0721374 0.00172924 0.00949017 0.0135035 -0.174309 0.00125 291
1 0.00632382 0.293113 0.00182298 0.0388652 0.0246813 -0.0400896 0.00125 292
1 0.282669 0.0530559 0.00236813 0.0291612 -0.00750959 -0.0488277 0.00125 293
1 0.261795 0.222253 0.00211079 0.0187389 -0.0879112 -0.170391 0.00125 294
1 0.15247 0.0290854 0.0013471 0.00149796 0.046985 -0.260543 0.00125 295
1 0.122132 0.0464633 0.00194159 -0.00166417 0.03894 -0.221924 0.00125 296
1 0.207592 0.19215 0.00235016 0.0611462 0.0580718 -0.136554 0.00125 297
1 0.0194264 0.112865 0.00232043 -0.00473068 -0.0597187 -0.0473893 0.00125 298
1 0.00693542 0.252371 0.00222972 9.76991e-05 0.0113797 -0.0317057 0.00125 299
1 0.00425243 0.185025 0.0012483 0.0149109 0.0279362 -0.215313 0.00125 300
1 0.228089 0.0446188 0.00138194 0.015128 -0.0689932 0.174769 0.00125 301
1 0.128181 0.199454 0.00169715 -0.0331231 0.00693887 -0.0460362 0.00125 302
1 0.286393 0.00401353 0.00190632 0.0861465 -0.0181261 -0.18171 0.00125 303
1 0.250013 0.0196395 0.00126961 -0.0139574 0.0117655 0.211827 0.00125 304
1 0.0495573 0.0935278 0.00132513 -0.0393461 0.022607 -0.28032 0.00125 305
1 0.0799386 0.109748 0.0015063 -0.00987661 -0.000220111 0.148429 0.00125 306
1 0.123882 0.139233 0.00143242 -0.0623855 -0.0241166 0.144347 0.00125 307
1 0.183665 0.150263 0.00154131 0.0116697 -0.0635407 0.00995307 0.00125 308
1 0.280185 0.0382797 0.00155025 -0.0130484 0.0208361 -0.0642361 0.00125 309
1 0.182918 0.236479 0.00141869 -0.00602693 0.00554168 -0.220899 0.00125 310
1 0.25408 0.182794 0.00145563 -0.0471429 0.0260094 -0.235786 0.00125 311
1 0.0918564 0.155823 0.00128365 0.00572593 0.0561609 0.199508 0.00125 312
1 0.277963 0.18481 0.00154828 0.0292259 0.011811 -0.186395 0.00125 313
1 0.0672433 0.149537 0.00146937 0.00408481 -0.0204031 -0.269339 0.00125 314
1 0.149186 0.250616 0.00136108 0.042661 -0.00492635 -0.224795 0.00125 315
1 0.281192 0.267842 0.00169828 0.0240439 0.0426137 0.11393 0.00125 316
1 0.107371 0.201065 0.00202989 -0.0267141 0.0350774 -0.0675309 0.00125 317
1 0.2786 0.00537058 0.00155659 -0.00888781 0.0449311 -0.291561 0.00125 318
1 0.188791 0.229394 0.00181511 0.00341758 -0.020735 -0.208998 0.00125 319
1 0.118146 0.251249 0.0016474 0.0165806 0.0113526 0.17147 0.00125 320
1 0.18694 0.268098 0.00147655 0.0104278 -0.0111812 0.224695 0.00125 321
1 0.0719754 0.0674971 0.00126403 -0.020428 0.0081941 -0.231224 0.00125 322
1 0.120235 0.255897 0.00132446 0.00414821 -0.00647537 -0.213174 0.00125 323
1 0.0615898 0.160781 0.00140886 0.0380973 -0.150827 0.0185684 0.00125 324
1 0.243917 0.296854 0.00175155 -0.0551815 -0.0549218 -0.166024 0.00125 325
1 0.134539 0.032317 0.00165801 0.0023847 0.00911372 0.155067 0.00125 326
1 0.0983459 0.0798598 0.00171936 -0.0240981 0.0501684 -0.0845621 0.00125 327
1 0.117153 0.187724 0.00125208 -0.0268264 -0.00332799 0.246879 0.00125 328
1 0.159011 0.0442481 0.00161246 -0.0417907 0.0331584 -0.227144 0.00125 329
1 0.00907084 0.160947 0.00128931 -0.0496498 -0.0251285 0.230039 0.00125 330
1 0.0292785 0.155313 0.00225165 -0.0429004 -0.030892 -0.0972935 0.00125 331
1 0.243233 0.162975 0.00133952 0.0814389 -0.0390499 -0.214763 0.00125 332
1 0.28609 0.0675633 0.00188761 -0.0299458 0.0223382 -0.0484377 0.00125 333
1 0.210191 0.0272996 0.00213013 0.00167136 -0.0027361 -0.196976 0.00125 334
1 0.0543884 0.255878 0.00134784 -0.0176642 0.0165979 -0.241477 0.00125 335
1 0.255541 0.0987001 0.00140595 -0.0562793 0.0563108 0.147124 0.00125 336
1 0.228354 0.22887 0.0013713 -0.0514959 -0.0232075 0.2361 0.00125 337
1 0.0160592 0.163684 0.00246013 0.0160324 -0.00918028 -0.0465027 0.00125 338
1 0.278628 0.0294729 0.00139344 0.0110011 -0.0559548 0.180275 0.00125 339
1 0.0503557 0.195986 0.00133638 -0.0294228 0.000743654 0.248536 0.00125 340
1 0.259098 0.303634 0.00125879 0.0167608 0.0266999 0.0295983 0.00125 341
1 0.02672 0.0970099 0.00159391 0.0200454 -0.00918343 0.0980336 0.00125 342
1 0.110268 0.164609 0.00133279 -0.0413786 0.0426042 -0.109684 0.00125 343
1 0.141533 0.302894 0.00172004 -0.0264162 -0.0489236 -0.153322 0.00125 344
1 0.230497 0.217678 0.0017812 0.0288774 0.0204157 0.165052 0.00125 345
1 0.255981 0.304126 0.00174634 -0.0382392 0.0235346 -0.173011 0.00125 346
1 0.0681516 0.197943 0.00144004 0.0258363 0.041296 0.15167 0.00125 347
1 0.0365661 0.284595 0.00198403 0.0180906 0.0194357 -0.195875 0.00125 348
1 0.100078 0.212797 0.0013008 -0.0386937 0.0184018 -0.260329 0.00125 349
1 0.259992 0.146622 0.00196711 -0.0952115 -0.00867748 -0.205435 0.00125 350
1 0.247245 0.249789 0.00242115 -0.00865393 0.00338659 -0.098868 0.00125 351
1 0.208766 0.235943 0.00145172 0.0336412 -0.0209618 -0.189065 0.00125 352
1 0.202896 0.0964272 0.00198564 0.104156 -0.0247652 -0.204749 0.00125 353
1 0.178422 0.0164478 0.00126121 0.0253452 -0.0351853 0.210057 0.00125 354
1 0.185128 0.293181 0.00163352 0.0381777 -0.0659824 -0.137944 0.00125 355
1 0.0458464 0.126474 0.00153938 -0.00853831 0.0328463 -0.211302 0.00125 356
1 0.20206 0.0467866 0.00239893 0.00590176 0.0572678 0.00453397 0.00125 357
1 0.208459 0.293324 0.00134114 -0.00935364 -0.0239867 0.0616484 0.00125 358
1 0.0689344 0.200412 0.00173035 0.0103726 -0.0109809 0.100601 0.00125 359
1 0.297133 0.055941 0.00151965 0.030385 0.0210259 0.173357 0.00125 360
1 0.0989694 0.167448 0.00196879 0.0051423 0.0653965 -0.145133 0.00125 361
1 0.261265 0.0244678 0.00141638 -0.025722 0.0029335 -0.122441 0.00125 362
1 0.098607 0.0693682 0.00122979 -0.0133397 -0.0256982 0.144386 0.00125 363
1 0.272381 0.102146 0.00162869 0.00420784 0.0176405 0.197486 0.00125 364
1 0.275457 0.0282823 0.00251995 0.0167956 0.00519672 -0.0444882 0.00125 365
1 0.0192399 0.181176 0.00126542 0.0331957 0.0349786 -0.0752107 0.00125 366
1 0.219807 0.132679 0.00149806 0.0241574 0.0139384 -0.159857 0.00125 367
1 0.0862777 0.0778016 0.00151305 0.00959025 0.0217218 -0.201677 0.00125 368
1 0.253897 0.18861 0.00234873 -0.0192764 -0.0344611 -0.0313406 0.00125 369
1 0.270832 0.195922 0.00139312 -0.0577663 0.0360843 0.0838867 0.00125 370
1 0.0875051 0.00448264 0.0016038 -0.000484542 0.0275318 -0.224963 0.00125 371
1 0.283275 0.290529 0.00180319 0.0576459 -0.015277 -0.0695419 0.00125 372
1 0.299416 0.112895 0.00147291 0.00385119 0.001707 -0.243553 0.00125 373
1 0.235614 0.0485528 0.00219107 -0.00241793 0.0455508 -0.154731 0.00125 374
1 0.160644 0.274663 0.00137913 -0.0016707 -0.00988104 0.239824 0.00125 375
1 0.215735 0.210088 0.00155653 -0.0340746 -0.00588288 0.117666 0.00125 376
1 0.0319233 0.17497 0.00122606 -0.0129322 0.0205741 0.0151487 0.00125 377
1 0.0175894 0.189712 0.0012329 -0.00588292 0.00232149 -0.181206 0.00125 378
1 0.238559 0.147757 0.00125387 -0.00729677 -0.0196056 0.246616 0.00125 379
1 0.0455978 0.227118 0.0023293 -0.0137981 0.0379153 -0.0235199 0.00125 380
1 0.18078 0.186479 0.00189136 -0.0579252 -0.0227816 -0.0765591 0.00125 381
1 0.261452 0.0529789 0.0019544 -0.0319967 -0.0151303 -0.0551603 0.00125 382
1 0.128433 0.160986 0.0018438 0.0461059 0.0130308 -0.216827 0.00125 383
1 0.237973 0.251841 0.00126796 -0.00581674 0.00718542 -0.222229 0.00125 384
1 0.221863 0.120565 0.00160212 -0.0342879 -0.00376773 -0.186809 0.00125 385
1 0.24913 0.182839 0.00203658 -0.0372247 -0.0739201 -0.040053 0.00125 386
1 0.168951 0.048883 0.0014834 0.0175535 -0.00898362 -0.101323 0.00125 387
1 0.156673 0.13522 0.00129605 0.0359179 -0.0421825 0.200875 0.00125 388
1 0.0220867 0.208977 0.00196203 0.0321608 0.00474135 -0.06957 0.00125 389
1 0.290573 0.147118 0.00220738 -0.00162502 -0.0194197 -0.0458064 0.00125 390
1 0.258093 0.0472894 0.00148985 0.02269 -0.0146579 -0.196555 0.00125 391
1 0.247838 0.0865559 0.00198378 0.011459 0.0278986 -0.0591894 0.00125 392
1 0.0345743 0.174687 0.00166026 -0.0214327 0.121755 -0.0880217 0.00125 393
1 0.213288 0.180763 0.00150965 -0.0158969 0.00926441 -0.17719 0.00125 394
1 0.266546 0.0589657 0.00129497 -0.0187397 0.0113698 0.203979 0.00125 395
1 0.249241 0.11624 0.00145249 -0.000520268 0.00195607 0.0871081 0.00125 396
1 0.00173631 0.180306 0.00125714 0.0532983 0.00274511 0.00555839 0.00125 397
1 0.115907 0.249502 0.00123265 -0.00953184 0.00744715 0.110902 0.00125 398
1 0.12949 0.0663091 0.00237149 0.00754524 -0.024389 -0.107308 0.00125 399