ITEM: TIMESTEP
1000000
ITEM: NUMBER OF ATOMS
10000
ITEM: BOX BOUNDS pp pp ff
0.0000000000000000e+00 3.5235408624999998e-01
0.0000000000000000e+00 3.5235408624999998e-01
-1.2500000000000001e-02 1.2500000000000001e-02
ITEM: ATOMS type x y z vx vy vz radius id
1 0.349585 0.178047 0.00123628 -0.00350787 -0.0149311 -0.174818 0.00125 1
1 0.313885 0.168545 0.00152308 -0.00885509 -0.00697692 0.0968052 0.00125 2
1 0.168402 0.168035 0.00137769 -0.0574375 0.0316395 0.134469 0.00125 3
1 0.155374 0.0944224 0.00189989 -0.00343909 -0.021277 -0.240765 0.00125 4
1 0.196717 0.0426409 0.00205255 -0.00950557 0.0088097 -0.193514 0.00125 5
1 0.222207 0.110732 0.00237674 -0.0123831 0.0144238 -0.0444592 0.00125 6
1 0.215482 0.232804 0.00165694 -0.0029295 0.00799385 -0.22773 0.00125 7
1 0.246839 0.086744 0.00173125 0.0256935 -0.0178289 0.106712 0.00125 8
1 0.333586 0.0967764 0.00199104 0.00335339 -0.00521989 -0.0659111 0.00125 9
1 0.0293597 0.208102 0.00144555 0.016579 -0.00865078 -0.224887 0.00125 10
1 0.13559 0.224039 0.00127717 0.00914733 -0.0261935 0.271034 0.00125 11
1 0.105844 0.226831 0.0014643 0.0357003 -0.0387908 -0.230468 0.00125 12
1 0.0794174 0.145962 0.00128633 0.00764164 0.0300753 -0.233108 0.00125 13
1 0.178804 0.226687 0.00152088 -0.00129492 -0.0401148 -0.183802 0.00125 14
1 0.242769 0.30235 0.0015267 0.0915254 -0.00672061 0.149462 0.00125 15
1 0.294219 0.123214 0.00171725 0.00592743 0.00111193 -0.0851131 0.00125 16
1 0.275242 0.10402 0.00202617 0.00884954 0.0315697 -0.102933 0.00125 17
1 0.100717 0.113318 0.00135068 0.0322948 -0.0372909 -0.115256 0.00125 18
1 0.139231 0.111055 0.00133374 -0.0416533 -0.029956 -0.243227 0.00125 19
1 0.205477 0.305313 0.00140898 0.0167966 -0.0040679 -0.222003 0.00125 20
1 0.217329 0.0192201 0.00138662 -0.00887231 0.00662683 -0.104147 0.00125 21
1 0.101837 0.00941145 0.00153266 0.00233323 0.0665755 -0.181325 0.00125 22
1 0.174811 0.0811676 0.00152169 0.0090408 -0.00610112 0.107073 0.00125 23
1 0.308949 0.058081 0.00182253 0.00284645 0.0178058 -0.213941 0.00125 24
1 0.231835 0.212547 0.0016546 -0.00546004 0.0103412 0.109787 0.00125 25
1 0.0166687 0.239719 0.00123544 -0.00465669 0.0189288 0.152053 0.00125 26
1 0.303584 0.0233905 0.00170658 -0.0430754 0.117691 -0.16857 0.00125 27
1 0.115477 0.134618 0.0013152 0.0115009 -0.0152753 0.183744 0.00125 28
1 0.0872297 0.311558 0.00220557 0.0452491 -0.022436 -0.028702 0.00125 29
1 0.0732958 0.148888 0.00125018 0.0324514 -0.024801 -0.245753 0.00125 30
1 0.0266497 0.0603939 0.00126227 -0.0160635 0.0218671 -0.101066 0.00125 31
1 0.269832 0.0467427 0.00168898 -0.00755996 0.039065 -0.230909 0.00125 32
1 0.0269626 0.269267 0.00130835 -0.0250855 0.00283322 -0.227772 0.00125 33
1 0.0803856 0.1778 0.00158047 0.0205253 -0.0143132 -0.105123 0.00125 34
1 0.0732296 0.346165 0.00218383 -1.21365e-05 0.000253424 -0.0694395 0.00125 35
1 0.227975 0.28634 0.0012559 -0.00430495 -0.0146488 -0.250608 0.00125 36
1 0.147846 0.0258676 0.00138394 -0.0313217 -0.0147243 -0.242848 0.00125 37
1 0.023016 0.245487 0.00142212 0.0109754 -0.0436405 -0.257308 0.00125 38
1 0.00447927 0.306806 0.0017912 0.0396759 0.015723 -0.0907241 0.00125 39
1 0.337645 0.153351 0.0014827 -0.0500152 -0.0142622 0.0687196 0.00125 40
1 0.164305 0.237708 0.00130959 0.0156863 -0.0654187 0.0464198 0.00125 41
1 0.321015 0.133827 0.00173999 -0.0097002 0.0281231 -0.0783128 0.00125 42
1 0.21322 0.329565 0.0020848 0.00947088 0.0266888 -0.0441384 0.00125 43
1 0.348762 0.278611 0.00147638 -0.000872582 0.00644486 0.125507 0.00125 44
1 0.331588 0.0318199 0.00151208 -0.017503 -0.0078566 0.0640109 0.00125 45
1 0.175585 0.170334 0.00145809 -0.0257513 0.055478 0.165176 0.00125 46
1 0.299242 0.116455 0.00127348 -0.0197291 0.00153454 -0.315987 0.00125 47
1 0.258151 0.265494 0.00167143 0.0145368 -0.0285117 0.128239 0.00125 48
1 0.348894 0.164228 0.00123318 -5.39332e-06 0.0173223 0.234841 0.00125 49
1 0.122062 0.273717 0.00160766 0.0308042 -0.00921405 -0.233067 0.00125 50
1 0.17477 0.0501981 0.00133586 0.0152842 0.0101279 -0.253115 0.00125 51
1 0.067396 0.24238 0.00139614 0.0393063 -0.00926265 -0.206761 0.00125 52
1 0.079798 0.256316 0.0013946 0.0334387 -0.00796094 -0.223702 0.00125 53
1 0.12036 0.120935 0.00147435 0.00958019 0.0107856 -0.268653 0.00125 54
1 0.124371 0.30256 0.00142106 0.0126271 -0.01998 0.178305 0.00125 55
1 0.349723 0.0475884 0.00132733 -0.0034541 0.0264118 0.240832 0.00125 56
1 0.0498001 0.184216 0.00144512 -0.0146036 0.017012 -0.175246 0.00125 57
1 0.00165432 0.199757 0.00136072 -0.00608225 0.0223235 0.220585 0.00125 58
1 0.157429 0.24338 0.00145716 0.0410763 0.0208651 -0.211123 0.00125 59
1 0.230804 0.00691326 0.00166892 0.0104464 0.00528995 -0.0923089 0.00125 60
1 0.3228 0.340508 0.0012806 -0.00837591 -0.00330241 0.194318 0.00125 61
1 0.281049 0.245482 0.00204021 -0.0171573 0.012224 -0.0306045 0.00125 62
1 0.0453587 0.106739 0.00140004 0.02146 0.0113132 0.149071 0.00125 63
1 0.149371 0.0714366 0.00133585 -0.059463 0.00618106 -0.012835 0.00125 64
1 0.10824 0.241974 0.00129412 -0.0148167 -0.0209594 0.0146307 0.00125 65
1 0.11214 0.162112 0.00184252 0.0228869 0.0477605 -0.0228438 0.00125 66
1 0.347125 0.292544 0.001257 -0.0177129 0.0222107 0.192831 0.00125 67
1 0.301152 0.0892161 0.00160191 -0.0159641 -0.00977446 -0.285437 0.00125 68
1 0.0202311 0.291065 0.00135248 -0.00954124 -0.00417049 -0.254591 0.00125 69
1 0.113616 0.186014 0.00193701 -0.00624676 0.00724852 -0.0695352 0.00125 70
1 0.116863 0.129142 0.00188345 0.000354929 -0.0149762 -0.247017 0.00125 71
1 0.294006 0.0497914 0.00177334 0.0153262 0.00774673 -0.153033 0.00125 72
1 0.0117037 0.0801231 0.00199256 -0.0271509 0.00282761 -0.0762804 0.00125 73
1 0.210024 0.0669686 0.00134231 0.0258323 -0.0405892 -0.10558 0.00125 74
1 0.259605 0.336675 0.00150057 0.0128339 -0.0164311 -0.294933 0.00125 75
1 0.242253 0.219337 0.0013304 0.00620851 0.020356 0.166168 0.00125 76
1 0.26867 0.318635 0.00123963 -0.00652762 -0.0124574 -0.165994 0.00125 77
1 0.305466 0.125877 0.00124999 -0.0197795 0.039883 0.268279 0.00125 78
1 0.0732064 0.0731362 0.00126932 0.018981 0.0135098 -0.0875879 0.00125 79
1 0.350972 0.174688 0.00150824 -0.00300351 -0.00674839 0.156051 0.00125 80
1 0.16773 0.110626 0.00135478 -0.0117011 0.00173328 -0.233594 0.00125 81
1 0.230192 0.126512 0.00134719 -0.0102645 -0.0318417 -0.289406 0.00125 82
1 0.12759 0.302077 0.00209142 -9.92274e-05 -0.00212118 -0.047194 0.00125 83
1 0.347545 0.128792 0.00149575 0.000859401 -0.0409451 -0.210969 0.00125 84
1 0.294415 0.317151 0.0015867 -0.010557 -0.00402826 0.100069 0.00125 85
1 0.200041 0.0609341 0.00124787 0.010941 0.0124003 0.19892 0.00125 86
1 0.0992314 0.187908 0.00222141 0.016763 -0.0130214 -0.065466 0.00125 87
1 0.263419 0.104546 0.00129602 0.0280628 -0.0468168 -0.248703 0.00125 88
1 0.323515 0.0811891 0.0013277 -0.011283 -4.35839e-05 -0.254985 0.00125 89
1 0.268885 0.101343 0.00131368 -0.0256098 -0.03817 -0.260621 0.00125 90
1 0.129186 0.229531 0.00152342 -0.0180533 0.0065773 0.143899 0.00125 91
1 0.114803 0.152355 0.00123226 0.00880882 0.00363324 0.0364791 0.00125 92
1 0.112485 0.0505698 0.00123104 0.0106365 0.00481046 0.0653107 0.00125 93
1 0.101458 0.341778 0.0018805 0.00748798 0.0158707 -0.0436013 0.00125 94
1 0.134341 0.0756127 0.00168047 -0.00021269 -0.00607328 0.120925 0.00125 95
1 0.133489 0.00432694 0.00144443 0.0351952 -0.00535853 -0.234674 0.00125 96
1 0.037928 0.0700046 0.0013131 0.0137569 0.00437439 0.181383 0.00125 97
1 0.322781 0.254831 0.00155923 -0.00402251 -0.00494391 0.232077 0.00125 98
1 0.0367308 0.0778533 0.00238489 -0.0678711 0.0355168 -0.0332499 0.00125 99
1 0.00444838 0.265997 0.00159416 0.00227579 -0.00328937 -0.244736 0.00125 100
1 0.308947 0.0640512 0.00152571 0.0434086 0.0762322 -0.200015 0.00125 101
1 0.217429 0.0261658 0.00162691 0.00111114 0.000510963 0.0920732 0.00125 102
1 0.315501 0.0345579 0.00132621 0.00683447 0.0781039 0.0817798 0.00125 103
1 0.226091 0.203907 0.00133673 -0.00196172 -0.0272821 -0.306208 0.00125 104
1 0.00401863 0.132826 0.00142036 0.0137732 -0.0065307 0.179847 0.00125 105
1 0.290533 0.0373902 0.00149916 0.0122832 -0.027492 -0.192916 0.00125 106
1 0.310929 0.180979 0.00130448 0.00874247 0.0287007 -0.240935 0.00125 107
1 0.287487 0.176599 0.00142828 -0.0114588 0.00157305 0.163414 0.00125 108
1 0.163127 0.0894235 0.00209411 0.0419753 -0.0210853 -0.0545885 0.00125 109
1 0.0587091 0.299146 0.0017102 0.0239194 -0.00789205 -0.0784398 0.00125 110
1 0.278331 0.04959 0.00209606 0.0136422 0.00324096 -0.174088 0.00125 111
1 0.32621 0.0143772 0.00154494 -0.0494003 -0.0258814 -0.227073 0.00125 112
1 0.187688 0.350393 0.00136003 -0.00727696 0.01296 0.132836 0.00125 113
1 0.322182 0.343067 0.00168533 -0.00100445 0.0302956 -0.214466 0.00125 114
1 0.169036 0.323275 0.0014369 -3.29544e-05 -0.000613838 -0.180252 0.00125 115
1 0.116811 0.228342 0.00155368 -0.0127779 0.025967 0.192847 0.00125 116
1 0.218505 0.137619 0.0018066 -0.0209149 -0.00896302 -0.216893 0.00125 117
1 0.293156 0.102071 0.00123036 -0.0151871 0.00745143 0.0190834 0.00125 118
1 0.190096 0.291227 0.00196266 -0.0256741 0.00370761 -0.0532562 0.00125 119
1 0.265811 0.28445 0.00164828 0.0797717 -0.0239362 -0.211163 0.00125 120
1 0.110126 0.00195592 0.00128577 -0.00556372 -0.00688414 0.0460005 0.00125 121
1 0.0971162 0.0501244 0.00138062 -0.0133708 0.0164744 0.174223 0.00125 122
1 0.343708 0.172242 0.00146743 -0.00167818 0.000401488 -0.242212 0.00125 123
1 0.0520627 0.124665 0.0012854 0.0223863 -0.0007859 -0.238557 0.00125 124
1 0.225411 0.284524 0.0014065 -0.000308695 -0.0164851 0.209346 0.00125 125
1 0.0449362 0.010577 0.00167746 -0.0380614 0.0190066 -0.0324168 0.00125 126
1 0.0902359 0.292303 0.00139031 0.0024569 -0.0444152 -0.184926 0.00125 127
1 0.271462 0.329593 0.00139526 -0.00256755 0.0149268 -0.239417 0.00125 128
1 0.139564 0.260748 0.00198116 0.00327052 -0.0946709 -0.158803 0.00125 129
1 0.1726 0.000420497 0.00156109 0.0287657 0.00477066 -0.182781 0.00125 130
1 0.100207 0.115857 0.00159236 0.0257778 -0.0102965 0.12893 0.00125 131
1 0.25809 0.224351 0.00142069 0.0176938 -0.0145991 0.179638 0.00125 132
1 0.0365935 0.197394 0.00123429 0.0136521 9.70945e-05 0.144893 0.00125 133
1 0.0738092 0.22328 0.001399 0.0121017 0.00437468 0.181825 0.00125 134
1 0.312262 0.341436 0.00230151 -0.0110731 0.0277221 -0.0385747 0.00125 135
1 0.0252691 0.279048 0.001418 0.0033367 -0.00942318 -0.195224 0.00125 136
1 0.105669 0.0453642 0.00167413 -0.0312159 0.0330742 -0.222774 0.00125 137
1 0.0298505 0.224172 0.00157874 0.00521996 -0.0159669 0.0834727 0.00125 138
1 0.0407115 0.267882 0.00164786 0.0242265 -0.0383115 -0.204843 0.00125 139
1 0.333772 0.0731854 0.00124003 0.0050881 -0.00468828 -0.0654298 0.00125 140
1 0.246974 0.0895013 0.00141142 -0.0107947 -0.0455385 0.219944 0.00125 141
1 0.271252 0.0554648 0.00140076 -0.00406014 -0.00562328 0.224877 0.00125 142
1 0.204628 0.0115573 0.00247944 0.00808555 0.0332795 -0.0353384 0.00125 143
1 0.288802 0.296424 0.00203938 0.0668557 -0.0327056 -0.0479434 0.00125 144
1 0.00130601 0.220825 0.00173158 -0.00942778 -0.0157418 -0.222563 0.00125 145
1 0.349838 0.33939 0.00146474 -0.0150729 -0.0274983 0.108046 0.00125 146
1 0.112841 0.173712 0.00216596 0.0853388 0.0698834 -0.154684 0.00125 147
1 0.320567 0.256661 0.00133482 0.0386382 -0.0376979 0.219721 0.00125 148
1 0.0801942 0.319831 0.00217478 -0.0179442 -0.0169607 -0.0275151 0.00125 149
1 0.34386 0.221821 0.0020398 0.0132463 -0.0309548 -0.03188 0.00125 150
1 0.319378 0.345271 0.00150264 0.0383816 0.0234459 0.139239 0.00125 151
1 0.262637 0.287757 0.00135041 -0.06366 -0.0109695 -0.238807 0.00125 152
1 0.203105 0.20317 0.00137516 0.0361335 0.00318882 -0.189154 0.00125 153
1 0.265513 0.163563 0.00133769 -0.00771832 -0.0249706 -0.036399 0.00125 154
1 0.0259806 0.321617 0.00208084 -0.0210734 -0.00777483 -0.0405611 0.00125 155
1 0.258705 0.238625 0.00189991 0.0198222 -0.0336241 -0.0567567 0.00125 156
1 0.0767839 0.087492 0.00122759 0.00100551 -0.0116673 -0.0929637 0.00125 157
1 0.0212657 0.149991 0.00224585 0.0120973 -0.0170075 -0.0120278 0.00125 158
1 0.149681 0.235836 0.00127377 -0.00562328 0.0167909 -0.223573 0.00125 159
1 0.116167 0.166011 0.00138881 0.00188894 -0.0230362 0.120414 0.00125 160
1 0.0708038 0.125506 0.00158167 -0.00817424 0.00133362 0.086768 0.00125 161
1 0.240097 0.259365 0.00142394 -0.00307042 0.00676485 -0.101021 0.00125 162
1 0.142673 0.27959 0.00145024 -0.00618728 0.0194122 0.142244 0.00125 163
1 0.29075 0.146179 0.00163843 -0.01707 -0.0109875 -0.159094 0.00125 164
1 0.0253667 0.128598 0.00237083 0.0126733 0.00953861 -0.134105 0.00125 165
1 0.039623 0.211072 0.00134734 -0.00265835 0.0198668 0.169545 0.00125 166
1 0.285706 0.191942 0.00146192 -0.0151445 0.0293673 -0.23324 0.00125 167
1 0.0773638 0.0722414 0.00153346 0.00343339 -0.0283069 -0.281559 0.00125 168
1 0.261894 0.132326 0.00135628 -0.00409026 0.00287683 0.191409 0.00125 169
1 0.319015 0.268629 0.00180208 -0.0155534 -0.0030737 -0.256059 0.00125 170
1 0.118747 0.342566 0.00161208 -0.0113978 -0.0248396 -0.23249 0.00125 171
1 0.0070532 0.32763 0.00147772 -0.00782361 0.00541682 -0.213626 0.00125 172
1 0.119906 0.0230803 0.00132272 -0.003154 0.0549753 -0.217294 0.00125 173
1 0.212726 0.242965 0.00137394 0.00243049 -0.0301991 0.161289 0.00125 174
1 0.244542 0.0793662 0.00125661 0.00814669 -0.0216669 0.206235 0.00125 175
1 0.0076763 0.151923 0.00201437 0.0210721 -0.0339309 -0.0294577 0.00125 176
1 0.101074 0.154242 0.00137747 -0.012024 0.00595745 -0.0620823 0.00125 177
1 0.298157 0.301759 0.00158423 -0.00101497 -0.0177307 -0.176137 0.00125 178
1 0.305132 0.177106 0.00123446 0.0216388 -0.00778668 -0.144174 0.00125 179
1 0.343664 0.0775111 0.00128693 0.0445712 -0.0155092 0.199217 0.00125 180
1 0.330822 0.0881191 0.00158534 0.0204479 0.0128687 -0.182943 0.00125 181
1 0.00285728 0.105978 0.00144858 -0.0158592 0.021729 0.211768 0.00125 182
1 0.273677 0.170225 0.00145482 0.0131774 -0.000359392 0.218258 0.00125 183
1 0.205402 0.217132 0.00222547 0.00803693 0.0370809 -0.143792 0.00125 184
1 0.0940637 0.11624 0.00122868 -0.0324113 0.0107114 -0.162402 0.00125 185
1 0.139702 0.243591 0.00146403 -0.0041756 0.0136741 -0.231628 0.00125 186
1 0.271472 0.0803012 0.00172344 -0.0368596 -0.0298967 -0.192449 0.00125 187
1 0.180263 0.254634 0.00216545 0.0305812 0.0105089 -0.108081 0.00125 188
1 0.0383405 0.161508 0.00132188 0.00817651 -0.023499 0.193374 0.00125 189
1 0.176733 0.208387 0.00156808 -0.013146 0.0134299 -0.179265 0.00125 190
1 0.0885441 0.20255 0.00130368 0.0186229 -0.0233129 -0.229727 0.00125 191
1 0.114694 0.0492383 0.00138341 -0.00465811 3.18135e-05 -0.232125 0.00125 192
1 0.191866 0.132092 0.00231003 -0.0147209 0.0220483 -0.0594647 0.00125 193
1 0.123301 0.0491268 0.00150429 -0.0114724 -0.00452015 0.222939 0.00125 194
1 0.0192325 0.0863591 0.00152496 0.00603683 0.0114594 -0.254204 0.00125 195
1 0.0404527 0.0281952 0.00127767 -0.0143104 0.0107187 0.204475 0.00125 196
1 0.159289 0.322296 0.00198781 0.00669922 0.0045425 -0.0657249 0.00125 197
1 0.211266 0.190797 0.00127298 -0.0184155 -0.00208511 0.259306 0.00125 198
1 0.0767191 0.189641 0.00124233 0.000689873 -0.00468103 -0.215924 0.00125 199
1 0.120086 0.0200709 0.0018694 0.0455212 -0.0135207 -0.107135 0.00125 200
1 0.339505 0.0425222 0.00129764 0.0471994 -0.0129225 0.189325 0.00125 201
1 0.289907 0.182818 0.00124355 -0.0080126 0.00369061 0.211243 0.00125 202
1 0.0437978 0.152146 0.00150679 -0.00146549 -0.000277309 0.214895 0.00125 203
1 0.0779545 0.201797 0.00139496 0.00846323 0.00195521 -0.250132 0.00125 204
1 0.116137 0.183135 0.00152702 0.0101268 0.00732479 0.212112 0.00125 205
1 0.024572 0.0638727 0.00193578 -0.00567277 -0.0117917 -0.198531 0.00125 206
1 0.278443 0.329828 0.00158619 -0.0271125 -0.0289602 0.0889416 0.00125 207
1 0.250985 0.0776555 0.00192968 -0.0148736 -0.0286515 -0.0425633 0.00125 208
1 0.282522 0.226702 0.00129589 0.068458 -0.00937265 0.123093 0.00125 209
1 0.06755 0.294138 0.00167802 -0.00546521 -0.00205555 0.198083 0.00125 210
1 0.335518 0.350368 0.00131839 -0.00987477 0.00283086 -0.284276 0.00125 211
1 0.134119 0.206547 0.00128377 0.0107478 -0.00785232 -0.232145 0.00125 212
1 0.131463 0.206845 0.00153656 0.00609023 -0.0114726 -0.18413 0.00125 213
1 0.193427 0.271401 0.00157242 -0.00449658 0.0018705 0.138226 0.00125 214
1 0.0503074 0.195891 0.00127065 0.00786129 0.0101841 0.18954 0.00125 215
1 0.0732997 0.121464 0.00136221 -0.00377423 -0.00497324 0.00397425 0.00125 216
1 0.0932926 0.264706 0.00146432 -0.0450662 0.0351144 -0.137682 0.00125 217
1 0.0880151 0.262894 0.00178038 0.0205036 0.00826128 0.128293 0.00125 218
1 0.0113289 0.0835433 0.00131174 -0.00915837 0.0315612 0.269737 0.00125 219
1 0.222934 0.131306 0.00230662 -0.0115777 0.00125228 -0.0542095 0.00125 220
1 0.213909 0.0292194 0.00195187 -0.0399821 -0.0406665 -0.0211472 0.00125 221
1 0.194862 0.0289492 0.00146404 -0.000226327 0.0256126 0.215142 0.00125 222
1 0.0813986 0.239337 0.00151183 -0.00837976 -0.000749395 -0.233512 0.00125 223
1 0.334777 0.270701 0.00246867 0.0194181 0.00747678 0.0131515 0.00125 224
1 0.169865 0.135733 0.00133335 0.0304201 0.00542912 -0.124743 0.00125 225
1 0.294221 0.0922859 0.00138655 -0.0134416 -0.000877924 -0.273174 0.00125 226
1 0.28597 0.293616 0.00150753 0.0241432 0.0554109 -0.181867 0.00125 227
1 0.0246281 0.314673 0.00152084 -0.0184968 0.0533838 -0.226417 0.00125 228
1 0.144411 0.2478 0.00192969 -0.0743366 -0.0170707 -0.0791588 0.00125 229
1 0.164275 0.133082 0.002181 0.000340747 0.0140915 -0.189169 0.00125 230
1 0.0427773 0.284643 0.00145505 0.00601682 0.0187703 -0.246621 0.00125 231
1 0.194384 0.0973927 0.00200206 -0.0108583 -0.000834637 -0.188734 0.00125 232
1 0.0141289 0.259974 0.00127875 -0.0371931 0.0467524 -0.198833 0.00125 233
1 0.055951 0.0790199 0.00131168 -0.0106013 0.00210491 -0.23644 0.00125 234
1 0.0967469 0.114144 0.00159302 -0.0177958 -0.00473078 0.18279 0.00125 235
1 0.0121625 0.086411 0.00219534 -0.0207549 -0.0161042 -0.151325 0.00125 236
1 0.0772071 0.0149279 0.00155588 0.00258879 -0.00479629 0.116174 0.00125 237
1 0.177409 0.253467 0.00209242 0.0196628 -0.0127067 -0.196025 0.00125 238
1 0.0611708 0.0924975 0.00218226 0.00625426 -0.0130097 -0.189959 0.00125 239
1 0.0765045 0.1791 0.00226698 0.014004 0.000702104 -0.168757 0.00125 240
1 0.0165807 0.327712 0.0013553 0.0189398 0.0140773 0.198082 0.00125 241
1 0.200423 0.153931 0.00145672 0.0208523 -0.018631 0.199706 0.00125 242
1 0.169063 0.22476 0.00134351 -0.0339167 -0.0124952 -0.217706 0.00125 243
1 0.225197 0.00485837 0.00178973 -0.00358479 0.0077714 -0.220724 0.00125 244
1 0.00965807 0.328996 0.00136934 -0.00434339 0.00678121 -0.189028 0.00125 245
1 0.0743774 0.0416532 0.00134148 -0.038753 0.016337 -0.230214 0.00125 246
1 0.12191 0.223108 0.00177261 0.00146519 0.0469936 -0.053823 0.00125 247
1 0.236943 0.126571 0.00249796 -0.0176057 0.0204988 0.0151712 0.00125 248
1 0.287526 0.104674 0.00137782 -0.0106714 0.00685053 0.238956 0.00125 249
1 0.229972 0.302787 0.00157002 -0.0243146 -0.0319437 -0.184322 0.00125 250
1 0.166543 0.164885 0.00216338 -0.0567614 -0.0156538 -0.155123 0.00125 251
1 0.210654 0.0978915 0.00201475 0.0139523 -0.00842522 -0.207903 0.00125 252
1 0.155263 0.0622341 0.00141098 0.0184946 -0.00980342 0.14469 0.00125 253
1 0.0215043 0.234244 0.00156821 0.0201559 -0.0107068 0.0989761 0.00125 254
1 0.0819432 0.138971 0.00186786 0.00216625 0.0232585 -0.0706832 0.00125 255
1 0.0662242 0.0906538 0.00230274 -0.0248422 0.0563641 0.00512802 0.00125 256
1 0.22196 0.0856338 0.00143888 -0.0858988 -0.0231437 0.0338092 0.00125 257
1 0.0808922 0.0797186 0.00163086 -0.03706 0.0132186 -0.180465 0.00125 258
1 0.0950047 0.217307 0.0013513 -0.0162915 -0.000350062 0.191933 0.00125 259
1 0.2275 0.279919 0.00160354 -0.0405729 -0.00649356 -0.206905 0.00125 260
1 0.0419256 0.186534 0.00187297 -0.02044 -0.00526637 -0.0760401 0.00125 261
1 0.221629 0.138006 0.00169085 -0.0123103 -0.041739 -0.233013 0.00125 262
1 0.0502708 0.32208 0.00139922 -0.0196265 0.00659175 0.15019 0.00125 263
1 0.279508 0.337045 0.00122979 0.0118633 -0.00271416 0.140588 0.00125 264
1 0.07107 0.0190286 0.00175303 -0.049348 0.0538587 -0.145479 0.00125 265
1 0.321413 0.281872 0.00171131 0.0164724 0.018552 0.14031 0.00125 266
1 0.0449584 0.0213837 0.00131551 0.0110928 0.0153688 0.177051 0.00125 267
1 0.279793 0.233308 0.0014384 -0.0588722 -0.0275363 0.198982 0.00125 268
1 0.316377 0.351297 0.00166852 -0.0609147 0.0451991 -0.169812 0.00125 269
1 0.205448 0.225681 0.00228776 0.0204521 0.0059541 -0.0608294 0.00125 270
1 0.170832 0.26829 0.00228548 -0.0175548 -0.0326187 -0.132753 0.00125 271
1 0.145807 0.191516 0.00165739 -0.0100993 0.00223151 0.20689 0.00125 272
1 0.00939575 0.282905 0.00171443 0.0373266 -0.00853435 -0.199323 0.00125 273
1 0.350474 0.257008 0.00146988 0.00297239 -0.00256116 0.101935 0.00125 274
1 0.154464 0.0183684 0.00145765 -0.0209973 -0.00906863 0.16874 0.00125 275
1 0.197984 0.077891 0.00145828 -0.038304 -0.0243789 0.136224 0.00125 276
1 0.329577 0.24058 0.00145849 -0.0058272 -0.00605127 0.132915 0.00125 277
1 0.0207978 0.0152767 0.00190209 -0.0317201 -0.151713 -0.155719 0.00125 278
1 0.337957 0.191621 0.00207258 -0.031381 -0.0257238 -0.0680162 0.00125 279
1 0.239955 0.0392733 0.00168647 -0.000552594 0.0195754 -0.178166 0.00125 280
1 0.133508 0.118632 0.00164409 -0.0180829 -0.0460581 -0.0563325 0.00125 281
1 0.0543899 0.309069 0.00199868 -0.0348136 -0.00205136 -0.19262 0.00125 282
1 0.0946 0.0778425 0.00126948 -0.0415967 0.0216167 0.0690729 0.00125 283
1 0.189412 0.0652271 0.00131391 0.0364371 -0.0161342 0.193779 0.00125 284
1 0.337184 0.146812 0.00178408 0.0143185 0.0127862 -0.114917 0.00125 285
1 0.237613 0.0171208 0.00134674 0.00255798 0.0167573 -0.107416 0.00125 286
1 0.262991 0.0496802 0.00161273 -0.0180442 0.00697976 -0.183865 0.00125 287
1 0.147904 0.302787 0.00129276 -0.0158766 -0.00341677 0.216485 0.00125 288
1 0.0330292 0.156583 0.00145116 0.00603069 0.0149816 0.12897 0.00125 289
1 0.347164 0.139144 0.00234931 0.00486589 -0.005161 -0.0248204 0.00125 290
1 0.102696 0.0644426 0.00198394 -0.00395697 0.0330204 -0.142605 0.00125 291
1 0.200112 0.271996 0.00242024 -0.0101396 -0.00181128 -0.0238275 0.00125 292
1 0.272656 0.136967 0.00226129 0.0152398 0.0182026 -0.0493126 0.00125 293
1 0.178999 0.197861 0.00131835 0.00386179 -0.0117133 0.179107 0.00125 294
1 0.183721 0.0684409 0.00149103 0.0454234 -0.0961602 -0.274456 0.00125 295
1 0.276386 0.292505 0.0014262 -0.0094127 -0.00612714 0.167751 0.00125 296
1 0.277058 0.00795058 0.00174201 -0.0191733 0.0324618 -0.124907 0.00125 297
1 0.263832 0.161432 0.00140593 -0.0783971 -0.0485496 0.0996638 0.00125 298
1 0.297154 0.212658 0.00136662 0.020643 0.0232796 -0.300748 0.00125 299
1 0.095798 0.169602 0.00128447 -0.0530005 -0.00106581 -0.294171 0.00125 300
1 0.259061 0.160191 0.00156077 0.0251034 -0.00682702 -0.0962346 0.00125 301
1 0.248825 0.000978243 0.00164683 0.0172863 0.00824404 0.0705398 0.00125 302
1 0.255736 0.117557 0.00145564 0.0158968 -0.0114959 0.174641 0.00125 303
1 0.0677418 0.154662 0.00145029 0.0042258 0.0148386 0.142614 0.00125 304
1 0.226168 0.343056 0.00123021 -0.0145722 0.0016824 0.0190797 0.00125 305
1 0.0268331 0.308988 0.00135464 -0.0131814 -0.0103191 0.227344 0.00125 306
1 0.233781 0.0131274 0.00123161 0.00440083 -0.00379354 0.0755224 0.00125 307
1 0.231399 0.238653 0.00208645 -0.0800389 0.0909567 -0.196522 0.00125 308
1 0.248983 0.111106 0.00193854 0.0134181 0.0374967 -0.0691268 0.00125 309
1 0.275483 0.107757 0.00132629 0.0258713 0.000142951 0.184909 0.00125 310
1 0.198574 0.138722 0.00211608 0.0444277 0.0528453 -0.00292889 0.00125 311
1 0.0513314 0.11563 0.00148687 -0.00341646 0.0235224 0.114089 0.00125 312
1 0.0747961 0.123818 0.0012396 0.0578073 0.0736302 0.223838 0.00125 313
1 0.230134 0.176178 0.00173507 -0.0107093 -0.0139693 0.10742 0.00125 314
1 0.337563 0.107455 0.00155156 0.00239091 0.0252515 0.0868448 0.00125 315
1 0.252295 0.283405 0.00217821 -0.0284772 0.024989 -0.0519477 0.00125 316
1 0.320795 0.209291 0.00155788 0.0136328 0.00988419 0.102891 0.00125 317
1 0.136401 0.0191614 0.00127321 0.0212001 -0.0302519 -0.205652 0.00125 318
1 0.220785 0.157409 0.0015426 0.00147456 -0.0450033 0.0719746 0.00125 319
1 0.120979 0.0538627 0.00132507 -0.0406224 0.00781955 -0.200451 0.00125 320
1 0.157959 0.0302525 0.00171633 0.00454368 0.00747569 0.103918 0.00125 321
1 0.0960477 0.131295 0.00172359 0.0476388 0.0127784 -0.215258 0.00125 322
1 0.236531 0.257852 0.00132351 0.0045466 0.0157059 0.175085 0.00125 323
1 0.0386666 0.195283 0.00133749 0.0078841 -0.00278264 0.154735 0.00125 324
1 0.255865 0.106204 0.00237308 -0.00571378 0.0168681 -0.121635 0.00125 325
1 0.132111 0.189421 0.00186712 0.0362495 -0.0266732 -0.0970129 0.00125 326
1 0.0834622 0.0867958 0.00138635 -0.0264592 0.0181672 0.212194 0.00125 327
1 0.198982 0.100855 0.00175994 -0.0393561 0.011581 -0.207881 0.00125 328
1 0.0551119 0.156167 0.00147569 0.0536874 -0.0544708 -0.249905 0.00125 329
1 0.189642 0.327 0.00124136 0.0558544 0.025893 -0.247556 0.00125 330
1 0.317829 0.259877 0.00123559 -0.00360432 0.0083767 0.23385 0.00125 331
1 0.346018 0.244714 0.00179443 -0.00544254 0.0544504 -0.0654661 0.00125 332
1 0.242892 0.00708704 0.00124209 -0.00816902 0.0188204 -0.302795 0.00125 333
1 0.347528 0.112303 0.00160779 0.0127899 0.00231536 -0.270189 0.00125 334
1 0.166807 0.187816 0.00233756 0.0109487 -0.038746 -0.0449159 0.00125 335
1 0.231479 0.332278 0.00186874 0.00894217 0.00467017 -0.204547 0.00125 336
1 0.206528 0.231421 0.00136884 0.00187085 -0.0229095 0.17885 0.00125 337
1 0.102504 0.146412 0.00137477 0.0196402 0.0353364 0.148461 0.00125 338
1 0.265195 0.316866 0.00151922 -0.021988 -0.00122907 -0.215669 0.00125 339
1 0.0793233 0.0205536 0.00222371 0.0154672 -0.0045872 -0.0521096 0.00125 340
1 0.341418 0.238332 0.00135317 -0.0233121 0.0220651 0.1733 0.00125 341
1 0.105346 0.257535 0.00193287 0.0383847 -0.0256692 -0.240101 0.00125 342
1 0.0744289 0.299161 0.00137552 0.00130444 -0.031016 0.193252 0.00125 343
1 0.317543 0.293552 0.00152534 0.00224802 -0.00541484 -0.216241 0.00125 344
1 0.18212 0.170311 0.00176546 -0.000101693 -0.0323797 0.138443 0.00125 345
1 0.246521 0.334461 0.00203863 -0.0429432 -0.00976367 -0.178078 0.00125 346
1 0.0687048 0.305796 0.00248158 -0.0256713 -0.0437899 -0.0337669 0.00125 347
1 0.323514 0.0624174 0.00132513 0.0326697 -0.00891028 -0.230452 0.00125 348
1 0.210241 0.118238 0.00123599 0.0106 -0.0249752 0.167038 0.00125 349
1 0.244248 0.285909 0.00160639 0.0432012 0.0324872 -0.22814 0.00125 350
1 0.0774984 0.196418 0.00151927 0.00651792 0.0113583 -0.257411 0.00125 351
1 0.186143 0.0625924 0.00127234 -0.0160487 -0.011024 -0.270019 0.00125 352
1 0.126801 0.170816 0.00164119 0.016069 -0.025038 -0.228418 0.00125 353
1 0.291232 0.0623724 0.00147803 -0.0195893 4.65272e-05 0.149512 0.00125 354
1 0.0972635 0.0661105 0.00142465 0.0525843 -0.0177128 0.0816743 0.00125 355
1 0.223499 0.0434743 0.00138514 -0.00322676 0.00619456 0.256864 0.00125 356
1 0.105256 0.167264 0.00145323 0.0289641 0.00711592 -0.157063 0.00125 357
1 0.179672 0.0886128 0.00148627 -0.0521285 -0.0413151 -0.00317901 0.00125 358
1 0.0852443 0.258057 0.00123217 -0.0166943 0.00669245 0.174507 0.00125 359
1 0.195652 0.215879 0.00241315 -0.00566895 0.00555105 -0.0897965 0.00125 360
1 0.253226 0.0879251 0.00169914 0.0490337 -0.0534742 -0.181447 0.00125 361
1 0.0149917 0.124076 0.0014692 0.0380683 0.0599625 -0.247327 0.00125 362
1 0.160418 0.325423 0.00176452 0.00202478 -0.00937485 0.1113 0.00125 363
1 0.337324 0.0964866 0.0019145 -0.013158 -0.0040532 -0.0697735 0.00125 364
1 0.27186 0.0161944 0.00133647 0.011584 -0.00905455 0.170165 0.00125 365
1 0.137842 0.267132 0.00249756 0.0362051 0.00154561 0.0167174 0.00125 366
1 0.0622261 0.0524913 0.00205122 -0.0104765 0.00303639 -0.0264137 0.00125 367
1 0.157524 0.341002 0.0015982 -0.000868427 0.0378913 0.167538 0.00125 368
1 0.0476446 0.247405 0.00201997 -0.0143035 0.0165959 -0.184083 0.00125 369
1 0.00621535 0.217144 0.00210631 0.0203446 0.000973519 -0.0256875 0.00125 370
1 0.149187 0.15379 0.00153902 -0.0194931 -0.013119 -0.236674 0.00125 371
1 0.00739275 0.280034 0.00146361 -0.0423035 0.0646085 -0.261773 0.00125 372
1 0.177667 0.192139 0.00156957 -0.0200124 -0.00793994 0.113576 0.00125 373
1 0.0983191 0.230821 0.00158938 0.0700811 0.00308256 -0.145912 0.00125 374
1 0.0382501 0.325365 0.00149926 -0.0332596 0.0057088 0.130046 0.00125 375
1 0.0287403 0.00800101 0.00122808 0.0277753 0.00651117 0.117743 0.00125 376
1 0.158233 0.0577512 0.00173327 0.0189203 0.00371934 -0.0979141 0.00125 377
1 0.172093 0.0344228 0.0012303 0.00469467 0.0209606 0.0377818 0.00125 378
1 0.304904 0.240018 0.00149301 0.00789567 0.0258353 -0.225641 0.00125 379
1 0.288974 0.316326 0.00184274 0.00608567 0.00253567 -0.0823374 0.00125 380
1 0.185052 0.0969654 0.00208668 0.0454967 -0.00234799 -0.184086 0.00125 381
1 0.121728 0.0169854 0.00128765 0.0471246 -0.0447628 0.0912242 0.00125 382
1 0.193478 0.254871 0.00127971 0.0142032 0.00720645 0.255495 0.00125 383
1 0.129316 0.194137 0.00126043 0.00505271 0.0156363 0.195561 0.00125 384
1 0.318505 0.0527549 0.00144703 0.00553651 -0.0405722 0.0629081 0.00125 385
1 0.268105 0.225755 0.00155399 0.00262567 0.0404061 0.113431 0.00125 386
1 0.09193 0.310971 0.00148137 -0.00970961 -0.00874484 -0.21972 0.00125 387
1 0.0112467 0.00623235 0.00233906 0.0483818 -0.0771601 -0.0919404 0.00125 388
1 0.132474 0.057764 0.00153333 0.0192903 0.00465142 -0.100039 0.00125 389
1 0.180239 0.0576232 0.00123659 -0.0170468 -0.0110086 0.172003 0.00125 390
1 0.171535 0.197511 0.00133456 0.0298373 0.00711742 0.224158 0.00125 391
1 0.304685 0.326803 0.00154474 -0.0166471 0.0262941 -0.239605 0.00125 392
1 0.260837 0.115649 0.00148651 0.0272533 0.00168297 -0.235386 0.00125 393
1 0.0720704 0.175481 0.00127582 -0.0123516 -0.0113697 -0.192425 0.00125 394
1 0.0265491 0.117582 0.00128592 -0.0214229 0.00528165 0.204653 0.00125 395
1 0.132229 0.342431 0.00127067 0.0169146 -0.0242029 0.203918 0.00125 396
1 0.126563 0.115947 0.00176597 0.0183064 -0.0638877 -0.1461 0.00125 397
1 0.334071 0.265492 0.00167882 0.0179403 0.0364295 0.137755 0.00125 398
1 0.106483 0.286453 0.00137409 0.00119579 0.0107282 0.171024 0.00125 399