ITEM: TIMESTEP
1000000
ITEM: NUMBER OF ATOMS
10000
ITEM: BOX BOUNDS pp pp ff
0.0000000000000000e+00 4.3998499375000000e-01
0.0000000000000000e+00 4.3998499375000000e-01
-1.2500000000000001e-02 1.2500000000000001e-02
ITEM: ATOMS type x y z vx vy vz radius id
1 0.194221 0.188473 0.00218982 0.0118794 -0.00185395 -0.162809 0.00125 1
1 0.153815 0.00852338 0.00149899 0.00480948 0.00585787 -0.195281 0.00125 2
1 0.363228 0.159351 0.0016629 0.0193342 0.0203532 -0.1006 0.00125 3
1 0.13926 0.204939 0.00157445 0.0154799 0.00877654 0.0558532 0.00125 4
1 0.0827365 0.0398003 0.00146577 0.0104184 0.00498258 -0.192819 0.00125 5
1 0.356844 0.375729 0.0012693 -0.0260521 0.001155 -0.241235 0.00125 6
1 0.390921 0.0109169 0.00123332 0.00365053 -0.00251899 0.153591 0.00125 7
1 0.0993857 0.33945 0.001553 -0.00655529 -0.0099899 -0.175497 0.00125 8
1 0.0672248 0.307881 0.00156339 0.0124629 -0.0144853 0.194756 0.00125 9
1 0.232655 0.417047 0.00134168 -0.00697998 -0.00121631 0.19061 0.00125 10
1 0.034223 0.0998253 0.00135823 0.00624074 0.0113686 -0.305015 0.00125 11
1 0.152829 0.394544 0.00140447 0.000956597 0.000204587 -0.242357 0.00125 12
1 0.375399 0.321335 0.00186631 0.0143944 0.0160835 -0.0830883 0.00125 13
1 0.436137 0.251567 0.00238595 -0.000451453 -0.00149599 0.0104641 0.00125 14
1 0.288776 0.344438 0.00146667 -0.033761 -0.0229588 0.127916 0.00125 15
1 0.254913 0.310908 0.00159629 -0.0127065 0.00875636 -0.256071 0.00125 16
1 0.35768 0.348697 0.00217442 0.0130923 -0.0121701 -0.158566 0.00125 17
1 0.373563 0.222762 0.00185301 -0.00842329 0.00251404 -0.0680055 0.00125 18
1 0.121006 0.417023 0.00213968 0.061594 -0.0675123 -0.157135 0.00125 19
1 0.10044 0.00621985 0.0025 0.0122645 0.00506352 -0.014749 0.00125 20
1 0.399907 0.162152 0.00162858 -0.0150557 0.00762235 -0.0915774 0.00125 21
1 0.376161 0.210633 0.00185511 -0.00369745 -0.00107658 -0.0463703 0.00125 22
1 0.321838 0.394128 0.00200878 -0.00268003 -0.0203691 -0.0579005 0.00125 23
1 0.130318 0.0686211 0.00130473 -0.00353657 8.56345e-05 0.164829 0.00125 24
1 0.0154586 0.0709078 0.00174008 -0.0161119 0.00386929 -0.0895503 0.00125 25
1 0.136563 0.375721 0.00149793 -0.00104062 0.00987244 0.0680654 0.00125 26
1 0.0734495 0.191474 0.00128575 0.00889937 -0.00652702 -0.223282 0.00125 27
1 0.304162 0.0142548 0.00230845 -0.0242188 0.0416491 -0.142507 0.00125 28
1 0.0691613 0.170293 0.00127366 0.00467021 0.00810215 -0.23125 0.00125 29
1 0.140624 0.268647 0.00151784 0.0209598 0.000448508 -0.177899 0.00125 30
1 0.326612 0.0496684 0.00226738 -0.0384509 0.0290224 0.0113049 0.00125 31
1 0.0886606 0.0661308 0.0015878 -0.0206598 -0.00537667 -0.181594 0.00125 32
1 0.326759 0.364289 0.00165422 0.0216787 0.0194774 -0.232621 0.00125 33
1 0.137761 0.339976 0.00250941 -0.0123733 0.0010784 0.0375433 0.00125 34
1 0.158206 0.186981 0.00127504 -0.00825186 -0.00245246 0.162443 0.00125 35
1 0.257093 0.261835 0.00127504 0.00302698 0.00244702 0.0697064 0.00125 36
1 0.322566 0.0849094 0.00132492 0.0229301 -0.0209267 0.184999 0.00125 37
1 0.0164321 0.366803 0.00136628 0.0180998 0.0293075 0.171392 0.00125 38
1 0.269278 0.164984 0.00140386 -0.00447998 -0.00381925 0.221198 0.00125 39
1 0.330476 0.129275 0.00123069 0.00567735 -0.00168977 0.0480134 0.00125 40
1 0.0621827 0.0887183 0.00165686 -0.0324739 -0.00148442 -0.212371 0.00125 41
1 0.216452 0.28902 0.0021591 0.00761789 0.00742278 -0.162206 0.00125 42
1 0.328844 0.126994 0.00153702 0.00826432 0.0242616 -0.187433 0.00125 43
1 0.122325 0.133455 0.00143795 0.00605831 0.00795433 -0.237216 0.00125 44
1 0.123267 0.338343 0.00198256 0.0271512 0.0157491 -0.0649208 0.00125 45
1 0.0263648 0.0511994 0.00150202 0.011197 -0.0110795 -0.239417 0.00125 46
1 0.0862337 0.0609642 0.00123032 -0.00518829 0.00837864 0.161314 0.00125 47
1 0.132335 0.0108828 0.0013614 0.0161666 0.00713718 -0.261076 0.00125 48
1 0.177961 0.303898 0.00142853 0.017277 -0.0142906 0.172456 0.00125 49
1 0.385993 0.22563 0.00141208 -0.012976 0.0198905 -0.238686 0.00125 50
1 0.210572 0.350162 0.00177343 -0.00129301 0.000961647 0.0830665 0.00125 51
1 0.161497 0.197554 0.00134797 -0.00112036 0.00960926 -0.231666 0.00125 52
1 0.14858 0.0733374 0.00125818 -0.0131966 0.00850893 0.0926201 0.00125 53
1 0.126811 0.0753895 0.00125327 0.00534433 -0.00158005 0.218343 0.00125 54
1 0.18149 0.262063 0.00158461 -0.0162998 -0.000230536 -0.236339 0.00125 55
1 0.411777 0.178736 0.00140775 -0.0174326 0.00638238 0.167429 0.00125 56
1 0.406919 0.217394 0.00170615 -0.0183446 -0.00350489 0.140883 0.00125 57
1 0.159129 0.065969 0.00234766 -0.0102374 0.00977805 0.0257645 0.00125 58
1 0.23101 0.0126959 0.00129321 -0.00512943 -0.025578 0.208513 0.00125 59
1 0.351345 0.0453959 0.00134248 0.00350913 -0.000303725 -0.241753 0.00125 60
1 0.28827 0.102591 0.00219562 -0.0151103 -0.0233367 -0.0600568 0.00125 61
1 0.0583671 0.430419 0.00131803 -0.0119403 -0.0117714 -0.2348 0.00125 62
1 0.393682 0.0500968 0.00126284 0.00433375 -0.0125663 0.192616 0.00125 63
1 0.122043 0.324451 0.00123204 -0.00220892 -0.00322116 -0.108447 0.00125 64
1 0.195942 0.247163 0.00228556 0.0320805 -0.00125961 -0.0479273 0.00125 65
1 0.148543 0.124576 0.0016174 -0.00527623 -0.0182721 0.0910954 0.00125 66
1 0.428159 0.407696 0.0014213 0.0121692 -0.0317398 0.13551 0.00125 67
1 0.0582019 0.151942 0.00126971 -0.0223824 -0.0118327 -0.269358 0.00125 68
1 0.262916 0.0654272 0.00224451 0.0082523 0.0140254 -0.0347906 0.00125 69
1 0.225253 0.128449 0.0013686 0.00954819 0.0026067 0.159005 0.00125 70
1 0.274519 0.0900443 0.00127529 0.00633505 0.00624233 -0.221144 0.00125 71
1 0.103229 0.137514 0.00144846 0.0014798 -0.00728181 0.224173 0.00125 72
1 0.402754 0.0258698 0.0012556 -0.0112801 -0.0425694 -0.225332 0.00125 73
1 0.293193 0.198713 0.00165725 0.00604946 -0.0072863 0.0931052 0.00125 74
1 0.334025 0.0964721 0.00136233 -0.0408537 -0.0146179 0.162708 0.00125 75
1 0.100863 0.0930574 0.00148708 -0.0287397 0.00536111 -0.242779 0.00125 76
1 0.00258567 0.328098 0.00127143 0.0211023 -0.0124962 -0.231102 0.00125 77
1 0.376464 0.266143 0.00141632 0.00323753 0.00376069 0.223164 0.00125 78
1 0.405986 0.390353 0.00157754 -0.0092361 0.010277 0.124843 0.00125 79
1 0.238029 0.11645 0.00150961 0.00828967 0.00252086 0.105421 0.00125 80
1 0.042044 0.270158 0.00224422 0.0133057 0.000352066 -0.0501622 0.00125 81
1 0.410112 0.342396 0.00130863 -0.026225 -0.054207 0.189587 0.00125 82
1 0.226227 0.0724198 0.00154396 0.0138987 0.0288301 -0.0747929 0.00125 83
1 0.265459 0.237483 0.0017714 0.00010665 0.00293326 -0.151667 0.00125 84
1 0.00900673 0.050904 0.00136531 -0.0114588 -0.0162978 0.160502 0.00125 85
1 0.286693 0.202373 0.00205385 0.00545759 0.0121779 -0.21643 0.00125 86
1 0.297711 0.107893 0.00129536 0.0737091 0.0308065 0.0127135 0.00125 87
1 0.291788 0.263182 0.0014035 0.00466842 -0.023217 -0.238903 0.00125 88
1 0.0371251 0.223823 0.00143871 0.0211743 0.00789785 0.184453 0.00125 89
1 0.401865 0.111382 0.00145185 0.011042 -0.000333636 -0.147335 0.00125 90
1 0.301988 0.219672 0.00176802 0.00817119 -0.0100702 -0.0463309 0.00125 91
1 0.016897 0.0907969 0.00173213 0.00655788 0.00270324 -0.199792 0.00125 92
1 0.31669 0.176087 0.00128646 0.00513133 0.0105759 0.185111 0.00125 93
1 0.163744 0.292987 0.00132233 0.00194049 -0.00634618 0.230541 0.00125 94
1 0.220731 0.412883 0.00191397 0.0921278 -0.0285306 -0.138442 0.00125 95
1 0.0945972 0.432574 0.00156337 0.00541223 0.0121626 -0.230517 0.00125 96
1 0.101054 0.380687 0.00128597 0.0239089 -0.0136222 0.204937 0.00125 97
1 0.227521 0.231176 0.00154309 -0.0012105 0.0245089 0.116945 0.00125 98
1 0.328623 0.248506 0.00210436 0.00363621 -0.0167715 -0.0581117 0.00125 99
1 0.0469196 0.103521 0.00135879 0.0146878 0.0176807 0.225096 0.00125 100
1 0.176631 0.106936 0.00122974 0.00183336 0.0214529 -0.00609659 0.00125 101
1 0.0302762 0.246886 0.00143836 0.00752526 0.0157885 -0.301106 0.00125 102
1 0.295213 0.42996 0.00162252 0.0130325 0.0124332 0.217928 0.00125 103
1 0.350018 0.147791 0.00229498 -0.00182961 -0.00339769 -0.160255 0.00125 104
1 0.260523 0.407318 0.00162444 -0.0272108 -0.0224127 0.109809 0.00125 105
1 0.30599 0.0575815 0.00176165 -0.00608433 -0.000562929 0.124018 0.00125 106
1 0.39515 0.403508 0.00150212 -0.0263472 -0.0139021 0.116596 0.00125 107
1 0.107837 0.053801 0.00156645 -0.0113171 0.000992857 -0.230769 0.00125 108
1 0.414024 0.339355 0.00146647 -0.00998623 -0.0319985 0.12684 0.00125 109
1 0.301606 0.182289 0.00170362 -0.00075792 0.0142612 0.0982511 0.00125 110
1 0.073405 0.0233238 0.00138043 0.0118525 0.00119692 -0.239294 0.00125 111
1 0.134334 0.0178866 0.00157929 -0.0405802 -0.00371712 0.164235 0.00125 112
1 0.12008 0.25883 0.00131928 0.000974753 0.000220722 0.177061 0.00125 113
1 0.163552 0.415059 0.0013876 -0.00828974 0.00616674 0.12324 0.00125 114
1 0.231129 0.252391 0.00218337 -0.00347178 -0.00572346 -0.154276 0.00125 115
1 0.429074 0.204665 0.00175022 0.00351411 0.0011906 0.0801047 0.00125 116
1 0.051705 0.321682 0.00190745 0.0039009 -0.00279404 -0.203752 0.00125 117
1 0.0767951 0.293453 0.00133062 0.00192913 0.000218478 0.227961 0.00125 118
1 0.379337 0.145205 0.00140207 -0.00682666 0.00473988 0.214754 0.00125 119
1 0.238853 0.203667 0.00155029 -0.00381069 0.0039382 -0.0582238 0.00125 120
1 0.402564 0.254941 0.0024619 0.00537746 -0.000379381 -0.0364311 0.00125 121
1 0.0593345 0.331572 0.00235974 0.0197604 0.0039335 -0.0483595 0.00125 122
1 0.349657 0.0872834 0.00200102 -0.0381976 -0.0555031 -0.160325 0.00125 123
1 0.184213 0.410122 0.00139731 -0.0213664 -0.0178389 0.152846 0.00125 124
1 0.342329 0.274068 0.0021446 -0.0130622 0.00560737 -0.16249 0.00125 125
1 0.395905 0.236735 0.00249485 0.00538856 0.0165396 -0.0321056 0.00125 126
1 0.211043 0.134011 0.0012634 -0.00857459 -0.00332305 0.210746 0.00125 127
1 0.385572 0.0622034 0.00136348 0.00905564 -0.00661348 -0.23724 0.00125 128
1 0.0918974 0.323407 0.00150215 0.00846542 -0.0322438 0.131781 0.00125 129
1 0.405851 0.0748377 0.00152459 -0.0200437 -0.0366105 0.121281 0.00125 130
1 0.224081 0.115701 0.00182321 -0.00995711 0.00375897 -0.164167 0.00125 131
1 0.355634 0.343116 0.00129268 0.0148573 0.00411317 -0.235399 0.00125 132
1 0.314801 0.209351 0.00123431 -0.00229075 -0.00413972 0.136993 0.00125 133
1 0.353964 0.173559 0.00159711 0.00295326 0.00979323 -0.238298 0.00125 134
1 0.0442009 0.204751 0.00235995 -0.00536786 -0.00572147 -0.0369799 0.00125 135
1 0.1369 0.135587 0.00167322 -0.00841762 0.00603425 0.0940715 0.00125 136
1 0.135816 0.18105 0.00122908 -0.0186315 -0.00445387 -0.151351 0.00125 137
1 0.0758879 0.0737544 0.00186326 -0.0139897 -0.0265286 -0.0822642 0.00125 138
1 0.0126315 0.251328 0.00248175 0.0124199 0.00415587 -0.0346431 0.00125 139
1 0.239589 0.123477 0.00130974 -0.00941869 0.0170822 0.233174 0.00125 140
1 0.200772 0.432072 0.00211899 -0.0220547 0.0176254 -0.199175 0.00125 141
1 0.420867 0.169085 0.00228823 -0.0086519 -0.0138569 -0.161371 0.00125 142
1 0.108994 0.39307 0.00159422 0.00011165 0.00991408 -0.101491 0.00125 143
1 0.20872 0.387923 0.00133542 0.0121056 0.00792584 -0.278997 0.00125 144
1 0.19192 0.165583 0.00185954 0.0456739 0.0545947 -0.119072 0.00125 145
1 0.0274813 0.210881 0.00124695 0.00567111 0.00438362 0.221441 0.00125 146
1 0.177409 0.294941 0.0015103 -0.0016892 -0.00647552 -0.23822 0.00125 147
1 0.254985 0.410945 0.00131387 -0.00637099 0.000184808 0.234913 0.00125 148
1 0.253256 0.176426 0.00139262 -0.00804003 0.0337516 0.220555 0.00125 149
1 0.240139 0.129357 0.0015717 -0.0061469 -0.00237944 0.112839 0.00125 150
1 0.0203095 0.420305 0.00170694 0.00490667 0.00469354 0.0957974 0.00125 151
1 0.182258 0.0512145 0.00134809 -0.0190167 -0.0302414 0.161772 0.00125 152
1 0.273909 0.369341 0.00196937 -0.0270688 -0.00697115 -0.0267463 0.00125 153
1 0.165608 0.333022 0.00152562 -0.0192848 -0.000364401 -0.174669 0.00125 154
1 0.290518 0.078268 0.00130301 0.0126776 -0.0116264 0.041077 0.00125 155
1 0.323068 0.0147055 0.00141889 0.0137582 -0.00390274 0.146492 0.00125 156
1 0.332723 0.400682 0.00136694 -0.000298058 -0.00938842 -0.23404 0.00125 157
1 0.339411 0.00208541 0.00136805 -0.00125768 0.00526514 -0.227938 0.00125 158
1 0.101371 0.241444 0.00216627 0.0197474 0.0023564 -0.00924085 0.00125 159
1 0.321142 0.0748348 0.00145374 0.0130963 -0.00878281 -0.240713 0.00125 160
1 0.161782 0.232408 0.00230647 -0.00103845 0.0103457 -0.133017 0.00125 161
1 0.118807 0.11478 0.00222564 0.00815582 -0.00389668 0.0176724 0.00125 162
1 0.208844 0.201211 0.00188303 0.0103647 0.0258596 -0.244755 0.00125 163
1 0.22927 0.265813 0.00134753 -0.0368512 0.0694873 0.0233075 0.00125 164
1 0.332157 0.0705267 0.00129992 0.0064042 0.0114848 0.183964 0.00125 165
1 0.283184 0.430681 0.00123296 0.0111931 -0.0095126 0.0653572 0.00125 166
1 0.350744 0.237072 0.00178089 0.0265331 0.00313431 -0.219163 0.00125 167
1 0.379966 0.170066 0.0013498 -0.00420212 -0.000478934 -0.237143 0.00125 168
1 0.172429 0.0802542 0.00151043 0.0119539 -0.0097888 0.127283 0.00125 169
1 0.285132 0.104399 0.00144751 0.0169971 0.00151171 -0.226921 0.00125 170
1 0.0192253 0.269827 0.00214767 0.0120854 0.0128394 -0.0539371 0.00125 171
1 0.141433 0.282421 0.0012544 0.00823995 0.00542934 -0.229916 0.00125 172
1 0.292773 0.0739768 0.00141416 -0.0100114 0.0118093 -0.226169 0.00125 173
1 0.374095 0.195375 0.00128438 -0.0477816 -0.00868056 -0.218118 0.00125 174
1 0.201508 0.362754 0.00137458 0.024783 -0.00289376 0.155764 0.00125 175
1 0.0355638 0.26051 0.00191207 0.00627683 0.0170089 -0.0820111 0.00125 176
1 0.344144 0.249487 0.00133725 0.000629133 -0.00162022 0.140587 0.00125 177
1 0.438574 0.051393 0.00237342 0.0291903 0.00841866 -0.0414227 0.00125 178
1 0.287531 0.134773 0.00144201 -0.00729653 -0.00585855 0.134728 0.00125 179
1 0.158229 0.118366 0.00147552 -0.00220404 -0.0211146 0.205447 0.00125 180
1 0.278696 0.255221 0.00123329 -0.0123712 0.0104585 -0.123747 0.00125 181
1 0.425952 0.219384 0.00144551 -0.0217366 -0.0385698 -0.226331 0.00125 182
1 0.375025 0.408244 0.00138275 0.00435074 0.0351457 0.177898 0.00125 183
1 0.335392 0.224425 0.00132232 0.0122359 -0.0209146 -0.286528 0.00125 184
1 0.30788 0.426244 0.00125497 -0.0105502 -0.0117798 0.220136 0.00125 185
1 0.15534 0.227443 0.00242821 -0.00573117 -0.0184392 -0.0386772 0.00125 186
1 0.0167365 0.3755 0.00129131 0.0054079 0.00340764 -0.23432 0.00125 187
1 0.159551 0.0860562 0.00190497 0.0102604 0.00434006 -0.193393 0.00125 188
1 0.207771 0.428243 0.00208839 -0.00285987 0.00786945 -0.189518 0.00125 189
1 0.0935758 0.38097 0.00239507 -0.0227784 0.0194304 -0.0225797 0.00125 190
1 0.344912 0.0466898 0.00246376 0.0474231 0.0586474 -0.038317 0.00125 191
1 0.329015 0.416099 0.00127101 -0.00445054 0.0492662 -0.06742 0.00125 192
1 0.128105 0.4121 0.00137864 -0.00848687 0.00725667 -0.262731 0.00125 193
1 0.269629 0.249474 0.00210827 -0.0135109 0.024096 -0.0593883 0.00125 194
1 0.108099 0.152437 0.00187962 0.00594875 0.0104469 -0.240616 0.00125 195
1 0.363614 0.296577 0.00126872 0.00177404 -0.00612352 -0.236334 0.00125 196
1 0.224046 0.245195 0.00138064 -0.00321695 -0.0159079 0.172174 0.00125 197
1 0.386178 0.207199 0.00144884 7.40968e-05 0.0152524 -0.23806 0.00125 198
1 0.360344 0.316834 0.00145449 -0.00389802 0.0131411 0.0962688 0.00125 199
1 0.323633 0.332848 0.0023594 0.00223196 -0.00964003 -0.043474 0.00125 200
1 0.0964697 0.393868 0.00152624 -0.00145314 0.00391335 0.125755 0.00125 201
1 0.204957 0.26838 0.00195797 -0.0198717 -0.0233809 -0.0612566 0.00125 202
1 0.21114 0.406688 0.00149706 0.00855232 0.0143733 -0.105886 0.00125 203
1 0.100037 0.0984041 0.00129316 -0.00528543 -0.00927018 -0.234822 0.00125 204
1 0.17446 0.0361828 0.00131136 -0.0428023 -0.011241 -0.068389 0.00125 205
1 0.330399 0.232881 0.00145852 0.00364641 0.0071143 -0.302177 0.00125 206
1 0.367477 0.275078 0.00138337 -0.0118225 0.00496661 -0.224692 0.00125 207
1 0.301829 0.196757 0.00194767 -0.00874431 0.0121814 -0.00518836 0.00125 208
1 0.386288 0.0953124 0.00142237 0.0180714 -0.00456521 0.140345 0.00125 209
1 0.012255 0.317291 0.00162974 -0.0167636 -0.0115862 -0.0862877 0.00125 210
1 0.131604 0.180734 0.00149447 0.0214795 -0.0024191 -0.23161 0.00125 211
1 0.152426 0.218864 0.00139994 -0.0045483 -0.0339477 -0.222307 0.00125 212
1 0.366311 0.00387806 0.00155001 0.0354072 0.013332 0.10853 0.00125 213
1 0.106184 0.000241781 0.00239967 -0.00176871 0.000599721 -0.0960035 0.00125 214
1 0.120058 0.0231642 0.00149332 0.0185326 0.00235793 -0.196988 0.00125 215
1 0.0381982 0.0833412 0.00152325 0.0178889 -0.0522387 -0.262132 0.00125 216
1 0.0223428 0.234886 0.0012817 -0.0327213 -0.0292813 -0.0289631 0.00125 217
1 0.390271 0.127482 0.00172638 0.00383064 0.00682619 0.104906 0.00125 218
1 0.0113982 0.163501 0.00155735 0.0057021 0.0115884 -0.2327 0.00125 219
1 0.0380633 0.118433 0.0017206 -0.0166876 0.00764385 0.158116 0.00125 220
1 0.222236 0.250528 0.00169548 -0.00635044 0.000755291 -0.0911845 0.00125 221
1 0.149188 0.0669024 0.00156667 0.0156448 0.0254958 -0.10327 0.00125 222
1 0.139138 0.00768732 0.00134883 -0.0142535 0.00805179 -0.242449 0.00125 223
1 0.0201064 0.424884 0.00135745 -0.00452236 -0.000943196 0.183658 0.00125 224
1 0.120388 0.213803 0.00171971 0.0184804 -0.00428763 -0.0434702 0.00125 225
1 0.207146 0.260227 0.00199091 0.00357099 -0.0250709 -0.00475387 0.00125 226
1 0.196038 0.380656 0.00146427 -0.00468852 0.0100212 -0.290584 0.00125 227
1 0.321122 0.386229 0.00125303 -0.0127308 0.00967455 0.277126 0.00125 228
1 0.429421 0.273795 0.0013495 0.0181438 -0.0299397 -0.233428 0.00125 229
1 0.390588 0.0994439 0.00203774 0.00971681 0.00496545 -0.0580152 0.00125 230
1 0.326639 0.0324829 0.00161246 -0.0416063 0.0119053 -0.231644 0.00125 231
1 0.236894 0.245901 0.00161326 -0.00465247 0.00902894 -0.232448 0.00125 232
1 0.161922 0.245392 0.00136681 0.00351301 0.00766255 0.16393 0.00125 233
1 0.112612 0.242416 0.0013742 0.0109376 -0.0217427 0.215604 0.00125 234
1 0.298205 0.056816 0.00185432 0.00757987 0.0186268 -0.07187 0.00125 235
1 0.0471523 0.382694 0.00134535 0.00125557 0.00860685 -0.238372 0.00125 236
1 0.258157 0.121405 0.00125501 0.0323282 -0.00410137 -0.318759 0.00125 237
1 0.146925 0.0947831 0.00142772 -0.00377652 -0.0157786 -0.218223 0.00125 238
1 0.220368 0.342754 0.00154847 -0.0152161 -0.0227664 0.231766 0.00125 239
1 0.39491 0.0792898 0.00155775 0.00776281 -0.00361017 0.13475 0.00125 240
1 0.253206 0.119212 0.00155238 -0.00302361 0.0133632 0.06624 0.00125 241
1 0.35752 0.300968 0.00176203 -8.07773e-05 -0.00715088 0.128488 0.00125 242
1 0.357601 0.430006 0.00159485 0.0128837 0.0470944 0.223102 0.00125 243
1 0.0739668 0.155645 0.00123413 -0.000385701 -0.000505799 0.0999944 0.00125 244
1 0.30852 0.0945411 0.00131983 -0.0308743 0.0557449 -0.216035 0.00125 245
1 0.23134 0.0318471 0.00141747 0.028097 -0.000288331 0.235282 0.00125 246
1 0.299792 0.290347 0.00125369 -0.00937101 -0.0124172 0.243439 0.00125 247
1 0.000576804 0.369235 0.00145761 -0.0107855 0.0363581 0.22322 0.00125 248
1 0.167705 0.283038 0.00191529 -0.0179283 -0.0166956 -0.204464 0.00125 249
1 0.295051 0.358013 0.00166282 0.012531 0.00171974 -0.231934 0.00125 250
1 0.124717 0.0725815 0.00143293 0.00432755 -0.0164117 0.10016 0.00125 251
1 0.127019 0.121384 0.00123183 -0.0168938 -0.00684519 0.0918646 0.00125 252
1 0.192898 0.427323 0.00163892 0.00253592 0.00335775 0.0500107 0.00125 253
1 0.000838662 0.216076 0.00156809 0.00685296 -0.0118296 0.103354 0.00125 254
1 0.435531 0.293505 0.00127025 0.0145848 0.000688165 -0.228896 0.00125 255
1 0.225672 0.169386 0.0021564 0.00807367 -0.0290705 -0.15972 0.00125 256
1 0.177223 0.140598 0.00189585 0.00592739 -0.0121898 -0.0818422 0.00125 257
1 0.186767 0.114021 0.00168913 -0.004543 0.0112177 -0.230657 0.00125 258
1 0.200658 0.399045 0.00160727 0.0376517 0.00913207 -0.230471 0.00125 259
1 0.0100049 0.3678 0.00154663 -0.0241828 -0.0588011 -0.191799 0.00125 260
1 0.386577 0.281408 0.0013433 0.0150211 0.0285821 0.165454 0.00125 261
1 0.154163 0.0251037 0.00217149 -0.00127759 0.00933305 -0.192577 0.00125 262
1 0.144838 0.179759 0.00143824 0.00259307 -0.00692732 -0.238134 0.00125 263
1 0.309214 0.218732 0.00129662 0.0185277 0.0194903 0.181301 0.00125 264
1 0.233552 0.214676 0.00200385 0.00156591 -0.00626281 -0.0650788 0.00125 265
1 0.369787 0.292541 0.00128953 -0.0063891 0.00887163 0.191129 0.00125 266
1 0.424273 0.146754 0.00152731 -0.00322262 0.0197537 0.0678591 0.00125 267
1 0.110825 0.112 0.00138702 -0.00487968 -0.00365943 0.223412 0.00125 268
1 0.18313 0.295526 0.00123859 -0.00406587 0.0282775 0.192812 0.00125 269
1 0.144255 0.267632 0.00156096 -0.0312769 -0.0100045 -0.228952 0.00125 270
1 0.347899 0.292183 0.00124694 0.0145452 0.00960585 0.200827 0.00125 271
1 0.13574 0.0929225 0.00163959 -0.000910333 -0.00812783 -0.279701 0.00125 272
1 0.411352 0.0315533 0.00155069 0.00394821 0.0111487 -0.187095 0.00125 273
1 0.355146 0.360849 0.00148998 0.00183882 -0.0109698 0.117955 0.00125 274
1 0.416751 0.0677136 0.00133355 -0.0130355 -0.0169898 -0.187081 0.00125 275
1 0.0522514 0.374845 0.00135233 -0.0300025 0.0171172 -0.236454 0.00125 276
1 0.336567 0.298743 0.00168045 -0.0156872 0.00416762 0.0604212 0.00125 277
1 0.322473 0.160227 0.00191641 -0.0162953 -0.00985272 -0.0316049 0.00125 278
1 0.158267 0.156274 0.00164128 -0.0250654 0.0210781 0.0698793 0.00125 279
1 0.268935 0.32077 0.00122535 -0.00502051 0.00585821 0.0812118 0.00125 280
1 0.418181 0.413438 0.00125478 0.00293675 -0.00492666 -0.0373772 0.00125 281
1 0.290034 0.190824 0.00247677 0.00018895 -0.00524239 -0.0866112 0.00125 282
1 0.386443 0.437971 0.00181297 -0.0145276 -0.0354724 -0.215245 0.00125 283
1 0.362426 0.320776 0.00181997 0.00739352 -0.0306126 0.130103 0.00125 284
1 0.0439685 0.330079 0.0014245 0.001032 -0.00639001 0.104317 0.00125 285
1 0.431996 0.340598 0.00184153 -0.00823135 -0.00347409 -0.212208 0.00125 286
1 0.396039 0.139957 0.00164285 0.00222779 0.00950368 -0.186208 0.00125 287
1 0.228668 0.283363 0.00143121 0.00536912 0.00244122 -0.239765 0.00125 288
1 0.18374 0.424491 0.00142317 0.0123396 0.00567813 0.240615 0.00125 289
1 0.0425844 0.437253 0.00142472 -0.00518682 0.0125485 0.129895 0.00125 290
1 0.256396 0.325735 0.00136594 0.00556151 -0.026716 -0.197071 0.00125 291
1 0.0883142 0.00549643 0.00138704 -0.00516284 -0.0120574 0.158827 0.00125 292
1 0.222424 0.121242 0.00192788 0.0121462 -0.017315 -0.206705 0.00125 293
1 0.143127 0.313352 0.0015084 -0.0133888 0.0136454 -0.196006 0.00125 294
1 0.301619 0.18648 0.00180786 0.0170846 0.0213932 0.138168 0.00125 295
1 0.21667 0.350368 0.00154856 0.0290063 -0.0144532 0.0567423 0.00125 296
1 0.404922 0.279424 0.00136481 0.01092 0.00852851 -0.237818 0.00125 297
1 0.0271084 0.169382 0.0014367 -0.00779554 -0.00539124 0.13901 0.00125 298
1 0.388062 0.33034 0.00140733 -0.0150695 0.0087519 0.220158 0.00125 299
1 0.132088 0.0743746 0.00128755 0.00747299 0.00661837 -0.232158 0.00125 300
1 0.265207 0.282862 0.00144202 0.013923 -0.011159 0.210667 0.00125 301
1 0.358266 0.23306 0.00169724 0.0251544 0.0100494 -0.201879 0.00125 302
1 0.152545 0.279706 0.00137181 -0.00509145 0.00948416 0.162214 0.00125 303
1 0.418401 0.336795 0.00248706 0.0408854 0.0427924 -0.0694423 0.00125 304
1 0.360978 0.383354 0.00144278 -0.0116448 -0.0147445 -0.233614 0.00125 305
1 0.0139001 0.417461 0.00222666 0.0155745 -0.0124654 -0.176675 0.00125 306
1 0.354977 0.201071 0.00221795 0.00486625 -0.0150382 -0.0156437 0.00125 307
1 0.0693187 0.290743 0.00190821 -0.0096134 -0.010185 -0.20388 0.00125 308
1 0.401798 0.396788 0.00162999 0.00674911 -0.00283113 0.0900407 0.00125 309
1 0.437151 0.231947 0.00147246 -0.0105316 -0.00270579 0.166483 0.00125 310
1 0.0423003 0.0631949 0.00123332 0.0035988 -0.0123502 -0.133283 0.00125 311
1 0.22613 0.142645 0.00129846 -0.00401305 0.0183036 -0.237849 0.00125 312
1 0.277925 0.392355 0.00126131 -0.119968 0.0192692 -0.104331 0.00125 313
1 0.191728 0.391226 0.00169889 -0.0198428 0.00302502 0.0898765 0.00125 314
1 0.246372 0.38358 0.00124171 0.0116131 -0.00524419 0.159787 0.00125 315
1 0.13662 0.0882069 0.00179971 -0.0116057 0.00298303 -0.0872974 0.00125 316
1 0.333686 0.0620581 0.00126487 0.00613245 0.0106239 -0.232539 0.00125 317
1 0.255248 0.318508 0.00143683 0.0314806 0.0186609 0.233457 0.00125 318
1 0.115068 0.357697 0.00206715 -0.0212629 -0.000356987 -0.210475 0.00125 319
1 0.142947 0.425788 0.00234157 0.0137339 -0.00256963 0.0263079 0.00125 320
1 0.306491 0.407031 0.00160982 0.0387302 0.00573045 -0.232892 0.00125 321
1 0.299706 0.201862 0.00142962 -0.00164542 0.0348269 0.212785 0.00125 322
1 0.012684 0.281423 0.0012303 0.0117329 -0.019217 -0.0243795 0.00125 323
1 0.084139 0.35839 0.00134729 0.015874 -0.0130794 0.00766816 0.00125 324
1 0.147528 0.394906 0.00125047 0.017979 0.0710684 0.0548666 0.00125 325
1 0.102206 0.228703 0.00160992 -0.0226137 -0.00859855 -0.239382 0.00125 326
1 0.394669 0.165659 0.00144945 0.00603878 -0.0188066 -0.228281 0.00125 327
1 0.248223 0.183092 0.00139429 0.00952931 -0.00439131 0.225548 0.00125 328
1 0.149916 0.2465 0.00189548 0.0226977 0.00925275 -0.205693 0.00125 329
1 0.11277 0.308191 0.00199075 0.00139877 0.0056889 -0.193566 0.00125 330
1 0.0152048 0.0406838 0.00220197 0.000936415 -0.00265918 -0.15274 0.00125 331
1 0.209889 0.196808 0.0017608 -0.0112851 -0.0110051 0.111376 0.00125 332
1 0.36352 0.156804 0.00161493 0.00393726 -0.0101154 -0.223225 0.00125 333
1 0.347664 0.116992 0.00122808 -0.0115442 0.00157526 -0.0988918 0.00125 334
1 0.320408 0.158519 0.00142435 0.00412799 -0.00711761 -0.0817276 0.00125 335
1 0.20126 0.22094 0.00221464 -0.0155092 -0.0236596 -0.0483296 0.00125 336
1 0.421554 0.438647 0.00196694 -0.0055707 -0.00927657 -0.0666824 0.00125 337
1 0.191905 0.354863 0.00143076 0.0120304 -0.0233248 0.126448 0.00125 338
1 0.0178636 0.233303 0.00127196 -0.0190145 -0.00796817 -0.212536 0.00125 339
1 0.376773 0.25473 0.00140108 0.0110774 0.0194673 0.148308 0.00125 340
1 0.0232387 0.166387 0.00168111 -0.011945 -1.98604e-05 -0.228034 0.00125 341
1 0.098375 0.010751 0.00229925 0.0149893 0.0154935 -0.0466002 0.00125 342
1 0.109823 0.403211 0.00248007 0.0161973 -0.0129804 -0.0531974 0.00125 343
1 0.319084 0.192216 0.00139769 -0.00705359 -0.00605485 -0.236738 0.00125 344
1 0.37943 0.379105 0.00157763 -0.00925151 0.000434599 -0.25067 0.00125 345
1 0.43819 0.146237 0.0015251 -0.0299709 0.00181472 0.190976 0.00125 346
1 0.362519 0.0581256 0.00146429 -0.00828733 0.012527 0.211265 0.00125 347
1 0.132179 0.402666 0.00160594 -0.00353701 0.00498497 -0.170735 0.00125 348
1 0.17845 0.429086 0.00136787 0.00348752 -0.0147165 0.151846 0.00125 349
1 0.0939832 0.237255 0.00123381 -0.0100275 -0.0114318 0.131263 0.00125 350
1 0.314194 0.0664542 0.00148245 -0.0155435 0.0125884 0.119386 0.00125 351
1 0.244621 0.252397 0.00130498 0.0390815 -0.050046 -0.146814 0.00125 352
1 0.403265 0.349616 0.00148011 -0.00158604 -0.0101746 -0.091107 0.00125 353
1 0.00744941 0.289217 0.00159714 0.0177295 7.81435e-05 -0.0932486 0.00125 354
1 0.348847 0.133544 0.00160386 0.00658181 0.0126706 0.098252 0.00125 355
1 0.405367 0.355659 0.0022437 0.00841551 0.00303213 -0.0667486 0.00125 356
1 0.269644 0.228205 0.00165306 0.00460569 -0.00839857 0.0957273 0.00125 357
1 0.275385 0.051757 0.00169227 -0.0268497 0.00191421 -0.15623 0.00125 358
1 0.174328 0.000516794 0.00165095 -0.00680954 0.0292062 0.0930828 0.00125 359
1 0.10208 0.147779 0.00197581 0.0283323 -0.0300648 -0.074937 0.00125 360
1 0.0136427 0.0804583 0.00229517 -7.90688e-05 -0.00454302 -0.0454121 0.00125 361
1 0.21131 0.142021 0.00127791 0.00868764 -0.000232032 0.207888 0.00125 362
1 0.241179 0.337442 0.00157904 -0.00044487 0.0139472 0.146059 0.00125 363
1 0.352338 0.379458 0.00129986 2.63449e-05 0.00679574 -0.0586755 0.00125 364
1 0.185488 0.071444 0.00164325 -0.00395986 0.0092087 0.0826919 0.00125 365
1 0.0746087 0.413176 0.00151246 -0.017363 0.0211444 -0.23529 0.00125 366
1 0.328168 0.158382 0.0015382 -0.00792864 0.0191144 0.103283 0.00125 367
1 0.34182 0.119008 0.00145618 0.0345325 0.0144199 -0.222521 0.00125 368
1 0.310859 0.0317361 0.00136267 0.000393426 -0.00418684 0.187581 0.00125 369
1 0.424581 0.366496 0.00133206 0.0151233 0.0383755 0.212597 0.00125 370
1 0.215024 0.241967 0.0014383 0.0171132 0.0204725 -0.198009 0.00125 371
1 0.394026 0.272651 0.00132141 0.00617178 -0.00391806 -0.273538 0.00125 372
1 0.219948 0.394719 0.00138858 -0.00478038 -0.0072075 -0.200508 0.00125 373
1 0.127101 0.347959 0.00210054 -0.0023965 0.00364766 -0.0129231 0.00125 374
1 0.148572 0.273378 0.00151144 0.00459983 0.0139058 0.110228 0.00125 375
1 0.227128 0.293693 0.00149684 0.00467038 -0.00580211 -0.233301 0.00125 376
1 0.275317 0.0487039 0.00141991 0.0152613 -0.00500276 0.139424 0.00125 377
1 0.139572 0.428264 0.00127653 -0.0184877 0.0259317 -0.226596 0.00125 378
1 0.305948 0.319999 0.00129305 0.0228095 -0.0274078 -0.27561 0.00125 379
1 0.0279206 0.364002 0.00138616 -0.0274566 0.0361419 0.216877 0.00125 380
1 0.34985 0.209788 0.00132138 -0.0197216 0.00556833 -0.245712 0.00125 381
1 0.370018 0.171122 0.00124003 -0.00383345 0.000910248 -0.207067 0.00125 382
1 0.0270972 0.0334674 0.0022842 0.00966792 -0.012507 0.0196591 0.00125 383
1 0.152097 0.360046 0.00154881 0.0253507 0.0132824 0.0786577 0.00125 384
1 0.0537908 0.119142 0.00136981 -0.0117376 -0.0283729 0.148089 0.00125 385
1 0.22751 0.355345 0.00173759 0.0216063 0.0353965 0.168345 0.00125 386
1 0.0182802 0.12045 0.00213881 -0.00896552 -0.00747343 -0.162318 0.00125 387
1 0.0461099 0.405856 0.00145857 -0.0127625 -0.00260763 -0.237736 0.00125 388
1 0.047294 0.0570289 0.00165887 0.0327646 0.0524782 -0.156861 0.00125 389
1 0.0678514 0.143639 0.00130824 0.00947568 0.0199187 0.184354 0.00125 390
1 0.285494 0.323165 0.00152158 0.00785986 0.0223939 0.156954 0.00125 391
1 0.0918035 0.341446 0.00150546 -0.0085873 0.0125237 -0.19501 0.00125 392
1 0.044501 0.317302 0.00136876 0.0110761 -0.000395906 -0.252319 0.00125 393
1 0.367392 0.183277 0.00124399 -0.0177691 -0.00177365 -0.219976 0.00125 394
1 0.405968 0.112079 0.00143735 0.00901044 0.00407987 0.217941 0.00125 395
1 0.316275 0.0186653 0.0013486 -0.0169963 0.00628243 0.169627 0.00125 396
1 0.0931812 0.00969095 0.00153435 0.00905332 -0.00141427 0.135915 0.00125 397
1 0.0198315 0.101912 0.00131578 -0.0196838 0.0171396 -0.22633 0.00125 398
1 0.393164 0.379093 0.0013941 0.0089244 0.00917962 -0.184333 0.00125 399