ITEM: TIMESTEP
1000000
ITEM: NUMBER OF ATOMS
10000
ITEM: BOX BOUNDS pp pp ff
0.0000000000000000e+00 7.7106804624999992e-01
0.0000000000000000e+00 7.7106804624999992e-01
-1.2500000000000001e-02 1.2500000000000001e-02
ITEM: ATOMS type x y z vx vy vz radius id
1 0.422285 0.479991 0.00158234 -0.0147747 -0.0092984 -0.176062 0.00125 1
1 0.354732 0.227122 0.00138009 0.00631835 0.00674965 0.15594 0.00125 2
1 0.439463 0.609363 0.00231594 0.00568164 -0.00247458 -0.15003 0.00125 3
1 0.231525 0.456863 0.00158445 -0.00457227 -0.00960927 -0.234931 0.00125 4
1 0.437201 0.531322 0.00152019 -0.00609442 -0.00781494 0.0737101 0.00125 5
1 0.197544 0.2135 0.00136241 0.00550607 0.00822871 -0.236012 0.00125 6
1 0.348305 0.407916 0.00164569 -0.00186776 0.000529815 -0.231421 0.00125 7
1 0.462067 0.189024 0.00218642 -0.00320349 0.00631294 -0.0244684 0.00125 8
1 0.527924 0.13034 0.00127359 0.0085545 0.00574224 0.242142 0.00125 9
1 0.0765402 0.703889 0.00135451 -0.0251802 -0.0113075 0.19254 0.00125 10
1 0.48043 0.399825 0.00145206 -0.00280455 -0.00142797 0.118733 0.00125 11
1 0.0620994 0.0680101 0.00129492 -0.00788637 0.00795276 0.187344 0.00125 12
1 0.0341606 0.464855 0.00142945 -0.0110902 0.00130684 0.170484 0.00125 13
1 0.27949 0.0503917 0.00126474 -0.00480269 0.00216597 -0.277706 0.00125 14
1 0.129337 0.302914 0.00165667 0.00545677 -0.00254343 0.0926665 0.00125 15
1 0.76469 0.0721229 0.00142644 -0.0220487 0.0105252 -0.184761 0.00125 16
1 0.23807 0.376192 0.00127097 0.0212789 -0.0131494 0.0700304 0.00125 17
1 0.173254 0.769817 0.00127126 0.000847577 0.00819392 -0.23141 0.00125 18
1 0.412108 0.528949 0.00191393 0.0021918 -0.00140315 -0.237011 0.00125 19
1 0.405759 0.66907 0.00180013 -0.00325414 -0.00716602 -0.221184 0.00125 20
1 0.644008 0.567548 0.00140682 0.00011278 0.00407873 -0.0952898 0.00125 21
1 0.49146 0.354776 0.00135041 0.0135859 -0.00878148 0.198371 0.00125 22
1 0.270006 0.522922 0.0015154 0.00564788 -0.00725396 0.132781 0.00125 23
1 0.286582 0.0754693 0.00203686 -0.00205095 -0.00296645 -0.184512 0.00125 24
1 0.720195 0.0425136 0.00134476 0.0149637 0.00531013 -0.236814 0.00125 25
1 0.751504 0.456242 0.00165158 0.00265004 -0.0154784 0.0927028 0.00125 26
1 0.440483 0.244279 0.00154691 -0.0273968 0.00873917 -0.176731 0.00125 27
1 0.238823 0.113667 0.00158496 -0.00705646 -0.0136528 0.0982053 0.00125 28
1 0.607139 0.770925 0.00226936 -0.00868497 0.0018285 -0.0489509 0.00125 29
1 0.145239 0.569082 0.00202161 -0.00614972 -0.000578352 -0.0647178 0.00125 30
1 0.440964 0.0992081 0.00234995 -0.00661927 -0.00110064 -0.0637836 0.00125 31
1 0.095117 0.745084 0.00176076 0.000698035 -0.0391146 -0.17202 0.00125 32
1 0.160344 0.157849 0.00130023 -0.0108324 0.00733417 -0.233504 0.00125 33
1 0.646371 0.685537 0.00170003 -0.00427472 -0.0256657 0.0907922 0.00125 34
1 0.65089 0.161995 0.00123023 0.00348611 -0.0104045 0.0507895 0.00125 35
1 0.37671 0.665016 0.00134178 -0.00825422 -0.0075964 -0.23739 0.00125 36
1 0.678196 0.0110373 0.00123446 -0.00162429 -0.00329615 -0.151974 0.00125 37
1 0.328585 0.554874 0.00143845 -0.00485615 -0.00128759 -0.197987 0.00125 38
1 0.45369 0.67947 0.00240279 -0.00875717 -0.00184001 -0.0933879 0.00125 39
1 0.134958 0.29219 0.00194506 -0.00302555 -0.00795448 -0.0687376 0.00125 40
1 0.369322 0.554939 0.00193108 -0.0111469 0.00252351 -0.23429 0.00125 41
1 0.657153 0.160767 0.00176238 0.0148046 -0.00920639 -0.0807117 0.00125 42
1 0.288241 0.656248 0.00143589 -0.00696248 0.0034201 -0.227296 0.00125 43
1 0.0720364 0.60845 0.00141439 -0.00682445 0.0068558 0.2612 0.00125 44
1 0.701025 0.0910809 0.00203169 0.00325492 0.00706754 -0.221586 0.00125 45
1 0.286295 0.153595 0.00209547 -0.0102637 0.00898731 -0.0248393 0.00125 46
1 0.112102 0.607424 0.00196467 -0.00262969 -0.000839842 -0.229111 0.00125 47
1 0.131254 0.200986 0.00134486 0.00121652 -0.00404765 -0.223114 0.00125 48
1 0.200884 0.327076 0.00132949 0.00558894 0.0112611 0.243004 0.00125 49
1 0.115831 0.0269075 0.00124816 -0.00589442 -0.00672088 -0.228061 0.00125 50
1 0.0762542 0.742959 0.00185007 -0.00121387 0.00611399 -0.0323479 0.00125 51
1 0.715712 0.372672 0.00125857 0.0134198 -0.00458877 0.195451 0.00125 52
1 0.142501 0.745971 0.00141518 0.00658556 -0.0077717 -0.303119 0.00125 53
1 0.489313 0.257803 0.00132361 -0.00184842 -0.00389587 -0.203704 0.00125 54
1 0.223141 0.207493 0.00162346 -0.00724848 0.0029313 -0.228188 0.00125 55
1 0.531193 0.612294 0.00133341 0.0010399 -0.00308946 0.170608 0.00125 56
1 0.498158 0.0835502 0.00148798 0.00183548 0.000628822 -0.260789 0.00125 57
1 0.137056 0.0436026 0.00146701 -0.00287368 0.00885027 -0.237963 0.00125 58
1 0.393023 0.308414 0.00242207 0.00641574 0.00136691 -0.0392386 0.00125 59
1 0.0604251 0.163993 0.00160672 0.0162638 -0.0175723 0.0960998 0.00125 60
1 0.656949 0.523494 0.00140025 -0.0199848 -0.000939832 -0.239544 0.00125 61
1 0.45927 0.286421 0.00155246 0.00148943 -0.00649869 0.100526 0.00125 62
1 0.286624 0.526037 0.00135512 -0.004509 -0.00248194 0.191847 0.00125 63
1 0.0332993 0.0163546 0.00149883 0.00171715 -0.0068134 0.219076 0.00125 64
1 0.570735 0.683047 0.00145054 0.0188057 0.0151258 0.21818 0.00125 65
1 0.418585 0.684638 0.00205533 0.0103938 0.00153597 -0.0653995 0.00125 66
1 0.39455 0.00750937 0.00151228 -0.000335657 -0.00535118 0.108748 0.00125 67
1 0.0890932 0.0315057 0.0012572 0.0179159 -0.00706842 0.194092 0.00125 68
1 0.232409 0.578139 0.0021151 -0.00136948 0.0101575 0.00831909 0.00125 69
1 0.0120834 0.736807 0.00125419 -0.000218577 -0.00267461 0.214506 0.00125 70
1 0.761922 0.447572 0.00157479 0.00174151 -0.0112428 0.0991899 0.00125 71
1 0.653137 0.521035 0.00177163 0.00748948 0.00249842 0.132319 0.00125 72
1 0.263611 0.70485 0.00130068 0.00792183 -0.0207396 -0.233789 0.00125 73
1 0.656663 0.443632 0.00145286 0.00529036 -0.00459824 0.162766 0.00125 74
1 0.46846 0.659562 0.00140391 -0.000942738 0.000596311 0.219692 0.00125 75
1 0.421826 0.395537 0.00133782 -0.00186948 0.0128945 0.227568 0.00125 76
1 0.68779 0.148173 0.00125259 -0.016081 -0.00672495 0.199424 0.00125 77
1 0.0912046 0.25024 0.00165809 0.00557905 0.000559303 -0.0873899 0.00125 78
1 0.272033 0.211427 0.00130233 -0.00903983 0.00965995 -0.234736 0.00125 79
1 0.584944 0.768769 0.00133918 -0.00500499 0.017671 -0.236804 0.00125 80
1 0.440548 0.642127 0.00130159 -0.000405326 -0.00428354 0.179188 0.00125 81
1 0.261854 0.140447 0.00147925 0.0085725 -0.0170031 0.12248 0.00125 82
1 0.121807 0.0499752 0.00172127 0.00131536 -0.00634464 -0.0913227 0.00125 83
1 0.133094 0.41323 0.0012334 -0.00164358 -0.000286271 0.123343 0.00125 84
1 0.644455 0.586124 0.00158777 -0.000463105 -0.00124525 -0.188271 0.00125 85
1 0.35524 0.725325 0.00166652 -0.00422074 0.00843435 0.094482 0.00125 86
1 0.458586 0.260006 0.00124603 0.00110766 0.00434825 0.196719 0.00125 87
1 0.240611 0.130091 0.00124279 -0.00247645 -0.00154295 -0.218939 0.00125 88
1 0.190759 0.699123 0.00137659 0.0028047 -0.00639435 -0.0676258 0.00125 89
1 0.0500382 0.508039 0.00171059 0.0022606 0.00355263 0.111401 0.00125 90
1 0.166996 0.250254 0.00138729 0.0177848 -0.00287578 -0.228476 0.00125 91
1 0.035245 0.288153 0.0019385 0.00491777 -0.0139644 -0.18848 0.00125 92
1 0.529601 0.401298 0.00126436 0.00303437 0.00596416 -0.236641 0.00125 93
1 0.123287 0.299765 0.00211627 0.0028884 -0.00862141 -0.170486 0.00125 94
1 0.637149 0.318402 0.0014354 -0.00166759 0.0195688 0.137997 0.00125 95
1 0.56539 0.0228235 0.00148997 0.00745382 -0.00565831 0.0735372 0.00125 96
1 0.177076 0.470516 0.00128453 -0.00158355 -0.000454687 -0.231653 0.00125 97
1 0.269184 0.123241 0.00181491 -0.00440211 0.00407559 -0.0348975 0.00125 98
1 0.721569 0.561096 0.00124798 -0.00255422 0.0129029 0.196693 0.00125 99
1 0.111699 0.266651 0.00130785 -0.00430655 -0.00625875 -0.235169 0.00125 100
1 0.370419 0.240276 0.0019941 -0.00395977 0.000350315 -0.0649972 0.00125 101
1 0.719677 0.445302 0.00223083 -0.00342673 0.00940797 -0.0512648 0.00125 102
1 0.760615 0.227911 0.00146244 0.00951621 -0.0524896 -0.0970978 0.00125 103
1 0.576001 0.614438 0.00134592 -0.00205003 0.000188958 -0.232838 0.00125 104
1 0.0568206 0.227027 0.00137261 0.00753074 -0.00287758 -0.251545 0.00125 105
1 0.591973 0.758566 0.00193253 -0.0296165 -0.0486767 -0.19235 0.00125 106
1 0.00266649 0.167651 0.00122666 0.0129459 -0.0072657 0.0938022 0.00125 107
1 0.522105 0.0301089 0.00172387 -0.000859872 0.0244891 0.0684981 0.00125 108
1 0.427985 0.372111 0.00159452 -0.00580062 -0.0031844 -0.233749 0.00125 109
1 0.192347 0.726164 0.00206096 -0.00539273 -0.00264307 -0.0792088 0.00125 110
1 0.467156 0.248252 0.00123598 0.00362207 -0.0125421 -0.134182 0.00125 111
1 0.0677576 0.763437 0.00187858 0.0052147 0.00373046 -0.210166 0.00125 112
1 0.578602 0.53888 0.00123824 -0.00414389 -0.00371571 0.17062 0.00125 113
1 0.424361 0.644342 0.00155213 -5.15644e-05 0.0118016 0.101095 0.00125 114
1 0.455913 0.135794 0.00157543 0.00554296 -0.00390355 -0.183276 0.00125 115
1 0.0354761 0.0487085 0.00137251 0.00477676 -0.0198381 -0.238523 0.00125 116
1 0.204946 0.670122 0.00164035 0.00759969 -0.000539752 -0.231731 0.00125 117
1 0.186801 0.115022 0.00128063 -0.0220128 0.00113355 0.274222 0.00125 118
1 0.514013 0.741882 0.00193297 -0.000254404 0.00503647 -0.0854405 0.00125 119
1 0.400959 0.752877 0.00149974 -0.0239905 -0.0241015 0.219444 0.00125 120
1 0.263474 0.565299 0.00223831 0.00689763 -0.00418668 0.018047 0.00125 121
1 0.0264061 0.748247 0.00176936 -0.0114933 -0.0171855 -0.0933117 0.00125 122
1 0.656734 0.46741 0.00159888 -0.0242485 -0.0105918 -0.233138 0.00125 123
1 0.457501 0.146076 0.00148203 0.00247319 0.00669738 -0.0648017 0.00125 124
1 0.313964 0.154147 0.0021493 0.00632326 0.0174221 -0.0708338 0.00125 125
1 0.303287 0.0451935 0.00125643 -0.00459965 0.00877235 -0.22213 0.00125 126
1 0.751377 0.150147 0.00163926 -0.0129819 -0.00712941 -0.176228 0.00125 127
1 0.317788 0.063031 0.00149415 -0.0270497 -0.0051401 -0.239281 0.00125 128
1 0.0919593 0.0290588 0.00144027 -0.000973073 -0.000317629 0.138907 0.00125 129
1 0.413145 0.735572 0.00138745 -0.002854 -0.00560886 0.152987 0.00125 130
1 0.439894 0.456982 0.00157267 -0.017285 0.000412825 -0.229635 0.00125 131
1 0.640945 0.360439 0.00133493 -0.00985657 0.0125755 -0.233408 0.00125 132
1 0.183315 0.0679918 0.00248423 0.0121648 0.00600505 -0.0499803 0.00125 133
1 0.690574 0.158456 0.00132619 -0.00246005 -0.00136718 0.230236 0.00125 134
1 0.649794 0.732814 0.001439 -0.00203674 0.0043837 0.230887 0.00125 135
1 0.458328 0.740538 0.0015 -0.000399372 0.00440568 0.104501 0.00125 136
1 0.201232 0.649754 0.00151471 0.0144098 0.00533999 0.0619191 0.00125 137
1 0.665983 0.672798 0.00123037 0.00206257 -0.000953403 0.0382519 0.00125 138
1 0.629326 0.0585172 0.00124371 0.00112907 -0.0178897 0.194319 0.00125 139
1 0.519266 0.492265 0.00223095 0.00327087 0.00212773 -0.147509 0.00125 140
1 0.685517 0.44572 0.0017895 0.0198946 -0.013884 -0.217908 0.00125 141
1 0.754496 0.277494 0.00161666 0.011508 1.70539e-05 0.139881 0.00125 142
1 0.255746 0.617246 0.0013099 -0.00457268 -0.00309556 -0.234365 0.00125 143
1 0.249125 0.267969 0.00141515 0.00799341 -0.00394196 0.213462 0.00125 144
1 0.334753 0.227457 0.0013211 -0.0168184 -0.0167556 0.232038 0.00125 145
1 0.395425 0.24543 0.001293 -0.0016373 -0.00434521 0.273769 0.00125 146
1 0.285703 0.717364 0.00160331 0.0051058 -0.00494448 0.0928496 0.00125 147
1 0.343291 0.223822 0.00138274 -0.0229696 0.00302304 0.145838 0.00125 148
1 0.43977 0.419391 0.00131106 0.00293608 -0.00258254 0.173819 0.00125 149
1 0.70198 0.251689 0.00133996 -0.00609014 -0.00684497 -0.218709 0.00125 150
1 0.544631 0.206285 0.00124272 -0.00205511 -0.00244203 -0.218548 0.00125 151
1 0.375298 0.164849 0.00135097 0.010001 -0.00679548 0.246013 0.00125 152
1 0.742483 0.58389 0.00137631 0.00371633 -0.00433242 0.221438 0.00125 153
1 0.151328 0.195148 0.00177678 -0.00465094 -0.000234575 -0.0383511 0.00125 154
1 0.658444 0.0870302 0.00125496 -0.00209594 -0.00700102 -0.235985 0.00125 155
1 0.440184 0.0487142 0.00142037 0.0240409 0.00459811 0.142363 0.00125 156
1 0.638701 0.453663 0.00133761 -0.00671957 -0.00253279 0.229648 0.00125 157
1 0.453609 0.326279 0.00170978 0.00482803 0.000755191 0.181358 0.00125 158
1 0.0977255 0.453466 0.00155856 -0.0109456 0.0248109 0.105539 0.00125 159
1 0.668258 0.285505 0.001234 -0.00403615 0.00206028 -0.0862863 0.00125 160
1 0.698802 0.266608 0.00146613 -0.00376736 -0.0122531 0.0850992 0.00125 161
1 0.100349 0.357238 0.0018149 0.000668614 0.0171695 0.127428 0.00125 162
1 0.0539686 0.571735 0.00168762 -0.0311019 -0.0166979 0.0983796 0.00125 163
1 0.266657 0.742214 0.00194728 0.00527893 -0.00854082 -0.198571 0.00125 164
1 0.377766 0.0703388 0.00122989 -0.00619038 0.00492675 -0.0282545 0.00125 165
1 0.227242 0.295116 0.00158083 0.00074101 -0.000642993 -0.0922737 0.00125 166
1 0.253429 0.11658 0.00202786 0.00211989 0.00161916 -0.194933 0.00125 167
1 0.518364 0.252487 0.00131972 0.0115902 0.0132521 0.176255 0.00125 168
1 0.73076 0.060522 0.00136299 -0.0124533 -0.00365618 0.159524 0.00125 169
1 0.390435 0.0726576 0.00149382 0.00232192 -0.00109036 -0.238618 0.00125 170
1 0.491622 0.730285 0.00139681 0.000822775 -0.00204653 -0.23891 0.00125 171
1 0.319371 0.620293 0.00156088 -0.00638504 -0.0140809 0.101065 0.00125 172
1 0.547501 0.177215 0.00148912 -0.0181663 -0.00553455 0.244751 0.00125 173
1 0.0871705 0.284487 0.00128544 -0.000275052 0.0188598 0.203979 0.00125 174
1 0.750322 0.565732 0.00123384 -0.000730307 -0.000292324 0.128278 0.00125 175
1 0.551727 0.443238 0.001336 -0.0203936 0.00748591 -0.237582 0.00125 176
1 0.473675 0.585951 0.00126318 -0.0007309 0.00228917 -0.248514 0.00125 177
1 0.762785 0.255107 0.00140602 -0.0121957 0.00211452 0.174602 0.00125 178
1 0.508082 0.630623 0.00126824 -0.00435215 -0.0117126 -0.239839 0.00125 179
1 0.710892 0.535369 0.00145659 0.00373516 0.00522055 0.219679 0.00125 180
1 0.611141 0.0125474 0.00151486 0.00350059 0.00559084 0.0674845 0.00125 181
1 0.605154 0.0946135 0.00129681 -7.13746e-05 -0.00867199 -0.237751 0.00125 182
1 0.123074 0.439883 0.00124467 0.00812424 0.00355336 0.19739 0.00125 183
1 0.284414 0.395139 0.00164963 -0.00468268 0.00687135 -0.225681 0.00125 184
1 0.54208 0.367869 0.00187558 0.000434028 0.00619856 -0.0725307 0.00125 185
1 0.769896 0.510802 0.00137524 0.00111309 0.00543966 0.223503 0.00125 186
1 0.0249101 0.387111 0.00127721 -0.00155443 -0.00732085 0.213076 0.00125 187
1 0.452695 0.240117 0.0012866 0.0131612 0.0138297 -0.190621 0.00125 188
1 0.144848 0.63373 0.00130169 0.00830112 -0.00419469 -0.205426 0.00125 189
1 0.161918 0.615878 0.00152997 0.00118002 -0.00196039 -0.231576 0.00125 190
1 0.673137 0.0612659 0.00183236 -0.0110881 0.00255912 -0.150542 0.00125 191
1 0.335131 0.44583 0.0024382 0.0038668 -0.00389395 -0.0382798 0.00125 192
1 0.261651 0.31802 0.00133404 -0.00848248 -0.00251855 -0.273597 0.00125 193
1 0.131906 0.334887 0.00153454 0.00549893 0.000613446 -0.18954 0.00125 194
1 0.743649 0.466572 0.00160377 0.00222141 0.0105739 -0.229619 0.00125 195
1 0.11499 0.651595 0.00202157 -0.00522927 4.74456e-05 -0.187629 0.00125 196
1 0.260155 0.718696 0.00167785 -0.00442133 0.00514261 -0.0473386 0.00125 197
1 0.563573 0.547681 0.00125976 -0.00122059 -0.00318598 -0.31954 0.00125 198
1 0.549405 0.049532 0.00142293 0.00551026 0.00669423 0.142667 0.00125 199
1 0.384474 0.482379 0.00124493 0.0100206 0.00157533 0.276402 0.00125 200
1 0.252365 0.372449 0.00162888 0.00871115 -0.00904588 -0.180373 0.00125 201
1 0.405448 0.34395 0.00146191 0.00172111 -0.00606857 0.114458 0.00125 202
1 0.524179 0.100923 0.00133621 0.0146673 -0.00821931 0.179207 0.00125 203
1 0.572464 0.0494447 0.00132811 -0.00167226 -0.00550795 0.229016 0.00125 204
1 0.610083 0.646934 0.00123171 -0.0045771 -0.0019348 0.0427971 0.00125 205
1 0.0956882 0.30431 0.00137393 -0.0157018 0.00366976 0.159327 0.00125 206
1 0.52685 0.739471 0.00180444 -0.00860798 0.00532497 0.103604 0.00125 207
1 0.595319 0.0841026 0.00135505 -0.00192117 -0.00341333 0.0309353 0.00125 208
1 0.145913 0.201325 0.00145166 0.003302 -0.0015394 0.132182 0.00125 209
1 0.0406508 0.65046 0.00156598 5.58944e-05 0.0022348 -0.2853 0.00125 210
1 0.122552 0.175575 0.00128355 0.0191536 -0.00575319 0.23761 0.00125 211
1 0.287596 0.305178 0.00144126 -0.000256645 -0.000390855 0.241328 0.00125 212
1 0.11412 0.13131 0.00164943 0.00307606 0.00146677 0.0905061 0.00125 213
1 0.628354 0.20583 0.00124064 0.0119017 0.00771657 -0.288321 0.00125 214
1 0.120457 0.70555 0.00186186 0.000475672 -4.77169e-05 -0.0609382 0.00125 215
1 0.134022 0.686555 0.0015099 0.00210936 0.00255982 0.158467 0.00125 216
1 0.756418 0.678934 0.00216464 0.00147777 -0.00142408 -0.193892 0.00125 217
1 0.171075 0.736241 0.00137897 -0.00246838 0.00314828 0.15723 0.00125 218
1 0.13477 0.47419 0.00161854 -0.00874677 -0.000610973 -0.169704 0.00125 219
1 0.16142 0.513707 0.00123025 -0.00474352 0.00439274 -0.0212534 0.00125 220
1 0.0994707 0.151928 0.00145889 -0.000174509 -0.00427459 -0.232082 0.00125 221
1 0.314045 0.179401 0.00135643 0.0177764 -0.0067833 -0.237744 0.00125 222
1 0.42068 0.183432 0.00183778 -0.000793236 -0.00800262 -0.223191 0.00125 223
1 0.756137 0.178417 0.00239425 0.00585237 -0.00141516 -0.00580889 0.00125 224
1 0.681073 0.0289356 0.00200039 -0.00913386 -0.00220272 -0.190526 0.00125 225
1 0.288674 0.162675 0.00163376 -0.00293075 0.00664721 -0.178979 0.00125 226
1 0.431232 0.377851 0.00124138 7.099e-05 0.000414158 0.214499 0.00125 227
1 0.667516 0.237611 0.0013445 -0.000706133 -0.000842378 0.155999 0.00125 228
1 0.509993 0.241383 0.0013967 -0.0204163 0.001855 0.18076 0.00125 229
1 0.735891 0.167118 0.00175425 -0.00280923 -0.00448422 0.119412 0.00125 230
1 0.131827 0.495471 0.00150408 -0.00519683 0.00175197 0.116823 0.00125 231
1 0.530753 0.11137 0.00131079 0.00177805 -0.000403607 0.149664 0.00125 232
1 0.247466 0.615428 0.00139657 -0.00239701 0.0141163 -0.241279 0.00125 233
1 0.654258 0.322753 0.0017766 0.000929927 -0.00320287 -0.215389 0.00125 234
1 0.116186 0.12715 0.00167569 0.00471899 -0.00105169 -0.0583244 0.00125 235
1 0.670278 0.266626 0.00131821 -0.00962241 -0.0117235 0.234105 0.00125 236
1 0.522495 0.661927 0.00175033 0.00643776 -0.00566777 0.115584 0.00125 237
1 0.659031 0.0515673 0.00232212 0.00398403 0.013969 -0.121418 0.00125 238
1 0.665398 0.418455 0.00129997 -0.00780946 0.0172955 -0.20739 0.00125 239
1 0.269731 0.104283 0.00142242 0.00161756 -0.00943317 0.169377 0.00125 240
1 0.673876 0.6517 0.00129623 -0.00141076 -0.00811311 0.202877 0.00125 241
1 0.687799 0.399601 0.00167214 -0.00373256 0.00504298 -0.228882 0.00125 242
1 0.557514 0.72669 0.00150457 0.0126675 -0.0012282 -0.192978 0.00125 243
1 0.351179 0.556143 0.00140113 0.00181876 0.0201188 -0.242949 0.00125 244
1 0.761167 0.707152 0.00152314 0.00310047 0.0217599 -0.232671 0.00125 245
1 0.558243 0.656004 0.00173468 -0.00454402 0.00167292 0.17301 0.00125 246
1 0.0255304 0.0983299 0.00143439 -0.0204798 -0.00533082 -0.231649 0.00125 247
1 0.322574 0.423102 0.00150253 0.00239257 -0.00547728 -0.189819 0.00125 248
1 0.337172 0.103528 0.0012706 -0.00669051 0.00148962 -0.23195 0.00125 249
1 0.285885 0.0233505 0.00137406 -0.0241108 -0.0094147 0.213244 0.00125 250
1 0.455626 0.257215 0.00195006 0.0140795 -0.00558119 -0.198074 0.00125 251
1 0.681864 0.576727 0.00130154 0.00569047 -0.00753769 -0.247773 0.00125 252
1 0.280503 0.196703 0.00150457 0.0097956 -0.0175107 0.219228 0.00125 253
1 0.201365 0.570916 0.0013564 0.0171124 0.0115793 -0.237546 0.00125 254
1 0.397367 0.589654 0.00167146 -0.0058135 0.00119122 -0.0542232 0.00125 255
1 0.585378 0.678725 0.00169443 0.00378599 -0.00666637 -0.227829 0.00125 256
1 0.143898 0.482658 0.00124453 -0.00139944 -0.00211064 -0.27237 0.00125 257
1 0.168334 0.0806016 0.00162788 0.00186017 -0.00882144 -0.180186 0.00125 258
1 0.196213 0.0306879 0.00239522 -0.00677929 0.00441558 -0.0347236 0.00125 259
1 0.286812 0.621167 0.00152888 -0.000725401 0.00524746 -0.237572 0.00125 260
1 0.0084217 0.597935 0.0014783 0.0056166 0.00113838 0.122557 0.00125 261
1 0.0762436 0.545836 0.00123467 0.0064588 0.00189534 -0.153617 0.00125 262
1 0.0546962 0.585046 0.0020424 -0.00239402 -0.000985031 -0.0285698 0.00125 263
1 0.526852 0.0661196 0.00171181 0.0305035 -0.00512077 0.105942 0.00125 264
1 0.715636 0.211239 0.00182045 0.0106038 -0.00392525 0.129242 0.00125 265
1 0.676908 0.245634 0.00164944 -0.00486002 0.00501301 -0.17909 0.00125 266
1 0.313902 0.350441 0.00166521 -0.0123676 -0.00896832 -0.0877441 0.00125 267
1 0.339192 0.482601 0.00147373 0.000915158 -0.00380469 -0.297683 0.00125 268
1 0.236293 0.282314 0.00129764 -0.00565184 0.0109873 -0.233347 0.00125 269
1 0.0665255 0.704519 0.00149608 -0.00221075 0.0106155 -0.175734 0.00125 270
1 0.765938 0.413704 0.00123393 -0.00468351 0.00793701 0.139564 0.00125 271
1 0.478281 0.04759 0.0018371 -0.00392045 0.000956964 -0.224625 0.00125 272
1 0.102608 0.196637 0.00131075 -0.00946212 0.015091 -0.23472 0.00125 273
1 0.26149 0.200732 0.00222013 -0.00324962 0.00447108 -0.0687989 0.00125 274
1 0.473273 0.434662 0.0019444 -0.00726345 6.68284e-05 -0.081093 0.00125 275
1 0.566911 0.289038 0.00239367 0.000775344 -0.00193451 -0.0411943 0.00125 276
1 0.665133 0.39884 0.00171773 0.00687181 -0.00166383 0.102227 0.00125 277
1 0.210281 0.531734 0.0015163 0.00929944 -0.0195556 0.114051 0.00125 278
1 0.33139 0.686604 0.0018507 -0.00116972 0.00208159 -0.221557 0.00125 279
1 0.555975 0.305459 0.0016046 -0.000327924 -0.00274926 0.142946 0.00125 280
1 0.763711 0.357859 0.00172135 0.00103479 -0.00115772 -0.19046 0.00125 281
1 0.450336 0.0736957 0.00178129 0.00416124 0.00422992 -0.256848 0.00125 282
1 0.0514889 0.731501 0.00140525 0.0074496 -0.00909754 0.217223 0.00125 283
1 0.399999 0.681998 0.00133541 -0.0189792 -0.00174085 -0.236439 0.00125 284
1 0.164976 0.256454 0.00129643 0.00126474 -0.00280334 -0.232829 0.00125 285
1 0.116008 0.372233 0.00130592 -0.0117093 0.00427208 -0.224096 0.00125 286
1 0.33616 0.536243 0.0012337 4.03038e-05 5.48344e-05 -0.254651 0.00125 287
1 0.345983 0.569281 0.00125069 -0.00142871 0.011733 -0.22988 0.00125 288
1 0.70459 0.532165 0.00144362 0.00553187 0.0040177 0.217189 0.00125 289
1 0.00938106 0.411662 0.00142139 -0.00244523 -0.00853695 -0.239553 0.00125 290
1 0.308395 0.0860463 0.00133996 -2.84349e-05 -0.013127 -0.225777 0.00125 291
1 0.344086 0.412813 0.00140436 -0.00580049 0.0103164 0.219477 0.00125 292
1 0.534859 0.284268 0.00173012 -0.00524179 -0.00142947 -0.224003 0.00125 293
1 0.59467 0.34589 0.0015626 -0.00395536 -0.000903064 -0.18682 0.00125 294
1 0.668617 0.274682 0.00208826 0.0056792 0.00203734 -0.210438 0.00125 295
1 0.334807 0.466501 0.00124222 -0.00119259 0.00223627 -0.220667 0.00125 296
1 0.287275 0.500708 0.00153325 0.00208496 -0.0104691 -0.237347 0.00125 297
1 0.0256129 0.0540939 0.00135291 -0.0143376 -0.0302895 0.167912 0.00125 298
1 0.760497 0.0276576 0.00145454 -0.00342383 0.00408433 -0.232157 0.00125 299
1 0.147164 0.307371 0.00139742 -0.0047051 -0.00244572 0.176147 0.00125 300
1 0.47516 0.682204 0.0014523 0.0164098 -0.0146866 0.216574 0.00125 301
1 0.531056 0.34136 0.00233307 -0.0177411 -0.000453567 -0.115051 0.00125 302
1 0.727306 0.390097 0.00132425 0.00467482 -0.00477678 -0.236002 0.00125 303
1 0.692427 0.00949093 0.00215403 -0.00247619 0.00114667 -0.0593636 0.00125 304
1 0.419545 0.694917 0.00128346 -0.00812406 0.0127683 -0.227926 0.00125 305
1 0.429932 0.0350772 0.00136292 -0.000546753 0.00139033 0.184265 0.00125 306
1 0.749757 0.217167 0.00149263 9.86295e-05 0.00954678 -0.17893 0.00125 307
1 0.471292 0.114149 0.00130065 0.0149017 -0.00241196 0.20071 0.00125 308
1 0.32415 0.181155 0.0014959 -0.00719926 -0.00181554 -0.246403 0.00125 309
1 0.202376 0.551661 0.00123717 0.00612505 -0.00613417 -0.281141 0.00125 310
1 0.513973 0.231619 0.00145559 0.00209194 -0.00604464 0.211442 0.00125 311
1 0.712557 0.389512 0.00128367 -0.0087727 0.0191738 0.190005 0.00125 312
1 0.643122 0.12414 0.00137663 -0.00334837 -0.00308077 0.2273 0.00125 313
1 0.0522771 0.0951719 0.00139585 -0.00430408 0.00872438 -0.239536 0.00125 314
1 0.290716 0.121389 0.00156938 0.00384731 -0.00529844 0.100988 0.00125 315
1 0.00915999 0.0102094 0.00161469 -0.00623479 0.000630106 -0.282871 0.00125 316
1 0.00656038 0.220273 0.00158103 -0.00901719 -0.00798073 0.0955224 0.00125 317
1 0.470246 0.0380421 0.00143895 0.0103941 -0.000347578 -0.198887 0.00125 318
1 0.681646 0.0573567 0.0023932 0.00210519 -0.00970134 -0.0981262 0.00125 319
1 0.341611 0.209651 0.00131689 -0.00397506 0.0089454 -0.0887906 0.00125 320
1 0.512432 0.0440625 0.00148334 -0.001626 0.00547298 0.125268 0.00125 321
1 0.685896 0.342858 0.0013078 -0.00999112 0.0054265 -0.234364 0.00125 322
1 0.130521 0.297594 0.00123102 -0.00416558 0.00748351 -0.0763312 0.00125 323
1 0.365305 0.0472373 0.00176296 0.00189347 0.0059509 -0.062644 0.00125 324
1 0.188779 0.549795 0.00150682 0.00184923 0.00194882 -0.23863 0.00125 325
1 0.00514991 0.528334 0.0012806 -0.0242103 -0.0258205 0.204315 0.00125 326
1 0.121435 0.761279 0.00123552 0.00112828 -0.00340267 -0.197123 0.00125 327
1 0.0203348 0.0974504 0.00139583 -0.00240627 0.000462731 0.121871 0.00125 328
1 0.257212 0.0604695 0.00182472 -0.00328999 -0.00804536 -0.214236 0.00125 329
1 0.190035 0.0685626 0.00138761 0.00423088 0.000412165 0.157005 0.00125 330
1 0.403605 0.532334 0.00153771 -0.0258355 -0.0169606 -0.0797978 0.00125 331
1 0.114002 0.224639 0.00149039 0.00497551 0.00806868 0.0745297 0.00125 332
1 0.575951 0.198205 0.00131673 -0.00656592 -0.00290447 -0.234703 0.00125 333
1 0.322164 0.625711 0.00251301 4.00816e-05 4.36908e-06 -0.0231664 0.00125 334
1 0.581979 0.158419 0.00127674 0.00508211 0.0050203 0.207342 0.00125 335
1 0.103809 0.0616333 0.00245986 -0.00758149 -0.0050996 -0.0370538 0.00125 336
1 0.40683 0.159697 0.00194254 -0.00421054 -0.00146509 -0.19921 0.00125 337
1 0.0272286 0.54144 0.00170111 0.00697633 0.00170266 -0.264127 0.00125 338
1 0.607859 0.41789 0.00177516 -0.00543703 -0.000232246 0.128666 0.00125 339
1 0.649024 0.208172 0.00132955 0.0102649 0.00136208 0.172901 0.00125 340
1 0.731327 0.111834 0.00127856 -0.0125884 -0.0201878 -0.22793 0.00125 341
1 0.186044 0.56103 0.00141053 -0.00388892 -0.00394025 -0.241941 0.00125 342
1 0.0212738 0.736012 0.00190903 4.45487e-05 0.000263821 -0.203521 0.00125 343
1 0.736577 0.659716 0.00235732 -0.000405551 0.000311456 -0.0638597 0.00125 344
1 0.509294 0.119421 0.00123092 0.000425832 -0.000678345 -0.0691624 0.00125 345
1 0.422758 0.609893 0.00184064 0.00645427 -0.000352424 -0.0872132 0.00125 346
1 0.497592 0.704466 0.00142584 0.00178493 0.00112917 0.144945 0.00125 347
1 0.770637 0.659506 0.0017639 0.000575478 -0.0121616 -0.0816526 0.00125 348
1 0.759246 0.395475 0.00171185 0.0151489 -0.0069591 -0.195658 0.00125 349
1 0.0356478 0.127403 0.00149519 0.000763874 0.0094093 -0.194212 0.00125 350
1 0.110501 0.35003 0.0013303 0.0159676 -0.0130375 -0.235688 0.00125 351
1 0.439289 0.512484 0.00169821 0.00878045 0.00516736 0.109108 0.00125 352
1 0.295497 0.440575 0.00134786 -0.00464334 -0.00440437 -0.234706 0.00125 353
1 0.462218 0.670992 0.00230929 0.000380873 -0.00559823 -0.040414 0.00125 354
1 0.552193 0.0324324 0.00173636 0.00653186 0.000132842 0.108516 0.00125 355
1 0.338058 0.231002 0.00157923 -0.0135359 -0.0129458 -0.176146 0.00125 356
1 0.368492 0.532453 0.00161545 -0.0028122 -0.0176495 -0.228134 0.00125 357
1 0.27229 0.177275 0.00144897 0.0271097 0.000604524 -0.24831 0.00125 358
1 0.188401 0.422689 0.0013418 -0.00382092 -0.00354928 0.168491 0.00125 359
1 0.0726281 0.717299 0.00135634 -0.000276474 -0.00401724 0.163768 0.00125 360
1 0.075274 0.754295 0.00218942 -0.00268494 0.00155176 -0.155799 0.00125 361
1 0.209032 0.23354 0.00140759 -0.00309939 0.00652089 0.151341 0.00125 362
1 0.622514 0.720577 0.00165015 0.0311326 -0.0821087 -0.0768512 0.00125 363
1 0.581217 0.114727 0.00156227 -0.0067473 6.00287e-05 0.0947007 0.00125 364
1 0.579119 0.207618 0.00196395 0.00628457 0.000770932 -0.0407587 0.00125 365
1 0.000350858 0.609203 0.00156557 -0.00306322 0.00647427 -0.289007 0.00125 366
1 0.170491 0.0287307 0.00134442 -0.000890781 -0.0039487 -0.241672 0.00125 367
1 0.688477 0.30594 0.00150884 0.00480157 0.002475 0.113168 0.00125 368
1 0.225633 0.648492 0.00135221 -0.0170905 -0.0049412 -0.191755 0.00125 369
1 0.0829338 0.468262 0.00137364 -0.0154002 -0.00405062 -0.223443 0.00125 370
1 0.579743 0.693556 0.00156685 -0.000937586 -0.0105348 0.101785 0.00125 371
1 0.00317834 0.431752 0.00125419 -0.000805618 -0.00876306 -0.315902 0.00125 372
1 0.197426 0.693041 0.00161507 0.000182957 -0.0114271 -0.282385 0.00125 373
1 0.605869 0.699221 0.00166707 -0.0147643 -0.00261086 -0.246954 0.00125 374
1 0.280236 0.360972 0.00206826 0.00146762 0.00813323 -0.0143215 0.00125 375
1 0.19265 0.125316 0.0024907 0.000979974 0.00461283 -0.011334 0.00125 376
1 0.56015 0.399531 0.00139687 -0.00565053 0.0101001 0.152516 0.00125 377
1 0.59651 0.352694 0.00132215 0.00050642 -0.000762866 0.159195 0.00125 378
1 0.201996 0.206446 0.00132871 -0.00868716 -0.00101372 -0.18671 0.00125 379
1 0.29472 0.0476488 0.00240649 -0.00354003 0.00590568 -0.0468639 0.00125 380
1 0.762284 0.234396 0.00125883 -0.00482162 -0.00683529 0.194188 0.00125 381
1 0.210262 0.768886 0.00159527 -0.000108303 0.00425662 0.221033 0.00125 382
1 0.145215 0.215365 0.00166563 -0.00508951 0.0107819 -0.245404 0.00125 383
1 0.551416 0.70376 0.00160341 -0.0011911 -0.000951211 -0.233816 0.00125 384
1 0.215976 0.199075 0.00162408 -0.00200264 -0.00524194 -0.0924259 0.00125 385
1 0.652208 0.516943 0.00129952 -0.000281369 -0.00371873 0.182096 0.00125 386
1 0.191752 0.723739 0.00146462 -0.00646248 -0.000118098 0.126802 0.00125 387
1 0.152638 0.159509 0.0018943 -0.000222388 0.00179457 -0.148251 0.00125 388
1 0.0106666 0.238191 0.0019145 0.00814547 0.00638019 -0.0747534 0.00125 389
1 0.339392 0.667415 0.00214518 -0.0102961 0.00246924 -0.197522 0.00125 390
1 0.182717 0.431743 0.00134719 -0.00690909 0.0001387 0.167298 0.00125 391
1 0.263141 0.425278 0.00164409 -0.00639656 -0.0113448 0.091394 0.00125 392
1 0.400654 0.224257 0.00130611 0.000146384 -0.000339309 0.151807 0.00125 393
1 0.390768 0.365955 0.00163493 0.0202141 -0.00124858 -0.235089 0.00125 394
1 0.661628 0.733562 0.00197034 0.00257021 -0.00992074 -0.0275454 0.00125 395