ITEM: TIMESTEP
1000000
ITEM: NUMBER OF ATOMS
10000
ITEM: BOX BOUNDS pp pp ff
0.0000000000000000e+00 2.5728380500000003e-01
0.0000000000000000e+00 2.5728380500000003e-01
-1.2500000000000001e-02 1.2500000000000001e-02
ITEM: ATOMS type x y z vx vy vz radius id
1 0.143776 0.256486 0.0013012 -0.0227763 -0.0360468 0.0221157 0.00125 1
1 0.0815725 0.255432 0.0012433 -0.0219481 -0.0175733 0.246156 0.00125 2
1 0.0697663 0.233455 0.00133513 -0.00154864 -0.0333594 -0.210294 0.00125 3
1 0.054686 0.0754683 0.00214193 0.044395 -0.00516929 -0.15482 0.00125 4
1 0.00599115 0.191785 0.0016132 0.00525607 0.0321707 -0.267466 0.00125 5
1 0.183515 0.0879865 0.00138706 0.0439566 -0.0205404 -0.238147 0.00125 6
1 0.194391 0.0149322 0.00182227 0.0406708 -0.0429543 -0.144177 0.00125 7
1 0.0586038 0.168331 0.00131579 0.0167978 0.06871 0.188705 0.00125 8
1 0.183816 0.0827367 0.00143545 0.0175912 0.0631332 0.0961336 0.00125 9
1 0.0979189 0.0565988 0.00131333 -0.0213042 0.0543019 -0.110139 0.00125 10
1 0.0830635 0.00627617 0.00127847 0.0116742 -0.022689 -0.222965 0.00125 11
1 0.0288963 0.0885025 0.0012727 -0.034869 0.0167867 -0.19646 0.00125 12
1 0.0735195 0.249895 0.00177981 -0.0394735 -0.104257 -0.104838 0.00125 13
1 0.160474 0.0787753 0.00130172 0.0354654 0.0311388 0.137866 0.00125 14
1 0.147344 0.025263 0.00209705 0.0670428 0.0103214 -0.0642389 0.00125 15
1 0.0674055 0.00354787 0.00152889 -0.00700152 -0.00901696 -0.0912944 0.00125 16
1 0.165124 0.152891 0.00209316 0.0071179 0.0874792 -0.177387 0.00125 17
1 0.169373 0.187306 0.00125931 -0.0143493 -0.0584611 -0.270078 0.00125 18
1 0.227069 0.114249 0.00213235 0.0138252 -0.0252285 -0.0493885 0.00125 19
1 0.192577 0.0602313 0.00203519 0.00243417 0.00175393 -0.0116183 0.00125 20
1 0.0943488 0.0449971 0.00125718 -0.0406634 -0.0254949 0.121206 0.00125 21
1 0.213592 0.0338487 0.00132885 -0.0175519 -0.0369946 -0.210577 0.00125 22
1 0.232042 0.105014 0.00215751 0.0136879 0.0428236 -0.0330999 0.00125 23
1 0.150852 0.0317861 0.00137891 -0.0588162 -0.0738876 -0.113894 0.00125 24
1 0.104364 0.104436 0.00130229 -0.0352425 0.0410083 0.250304 0.00125 25
1 0.00442561 0.249603 0.00126458 -0.0215307 -0.026583 0.0476555 0.00125 26
1 0.153943 0.00885963 0.00180683 -0.044917 -0.0416368 -0.165834 0.00125 27
1 0.0262739 0.163302 0.00145887 -0.00915446 -0.0349774 -0.215574 0.00125 28
1 0.118643 0.0687172 0.00144934 -0.0760955 0.0267388 -0.216601 0.00125 29
1 0.159541 0.130454 0.00190169 -0.00950541 -0.0664259 -0.154985 0.00125 30
1 0.191789 0.216005 0.00160585 0.0286897 -0.0820131 -0.174864 0.00125 31
1 0.0178886 0.0818057 0.00165962 0.00776232 -0.060522 -0.184182 0.00125 32
1 0.130021 0.176959 0.00160101 0.0615579 0.0316826 -0.215631 0.00125 33
1 0.102004 0.116654 0.00155605 -0.00416466 0.05254 -0.134539 0.00125 34
1 0.078403 0.213977 0.00171887 -0.0747516 0.0216819 -0.103856 0.00125 35
1 0.085499 0.00768369 0.00229376 -0.0424382 0.0906377 -0.0368025 0.00125 36
1 0.227992 0.190661 0.00139751 -0.000770731 0.0323179 -0.214113 0.00125 37
1 0.0276268 0.0211582 0.00215652 -0.0142246 -0.0311727 -0.168007 0.00125 38
1 0.183645 0.232398 0.00134178 0.00186913 -0.00495963 -0.239339 0.00125 39
1 0.176382 0.169225 0.00160549 0.0769668 0.0255084 -0.219806 0.00125 40
1 0.152916 0.181349 0.00234985 0.0181233 -0.0541135 -0.0078334 0.00125 41
1 0.00651043 0.235114 0.00160747 -0.0191722 0.0263348 -0.23093 0.00125 42
1 0.0810933 0.17451 0.0017348 0.02982 0.0471097 -0.0717598 0.00125 43
1 0.0629723 0.23618 0.00136291 0.00306079 0.0028693 -0.0745609 0.00125 44
1 0.157154 0.118177 0.00141161 0.0216193 -0.0100344 -0.230391 0.00125 45
1 0.192561 0.211602 0.00139659 0.0624958 -0.0678555 0.0227092 0.00125 46
1 0.235412 0.0387833 0.00223022 -6.77572e-05 0.00472016 -0.0707287 0.00125 47
1 0.0432137 0.00254224 0.00136466 -0.0460339 -0.00688432 0.196288 0.00125 48
1 0.0254371 0.231445 0.00179627 0.00235882 -0.00463947 -0.157187 0.00125 49
1 0.0341042 0.236751 0.00136209 0.0333259 -0.00713561 0.145882 0.00125 50
1 0.073869 0.202734 0.00124447 0.0868905 0.00379379 -0.223382 0.00125 51
1 0.252538 0.166741 0.00137478 0.0080945 -0.0451776 0.155737 0.00125 52
1 0.125659 0.150315 0.0014074 -0.0322919 -0.0379982 -0.230596 0.00125 53
1 0.248551 0.0392146 0.00204151 -0.012157 -0.0313669 -0.178629 0.00125 54
1 0.168994 0.184635 0.00247927 -0.0294217 -0.0231526 -0.0292374 0.00125 55
1 0.0273508 0.0336576 0.00226026 -0.0649694 -0.00500842 -0.106078 0.00125 56
1 0.0423891 0.104704 0.00145577 -0.00216969 0.0164296 0.174826 0.00125 57
1 0.227445 0.165665 0.00137119 -0.0235427 0.00899285 -0.197093 0.00125 58
1 0.0319933 0.069641 0.00212063 -0.00656506 -0.0333622 -0.0295389 0.00125 59
1 0.0770118 0.106216 0.00136515 0.0267732 0.0213679 -0.232467 0.00125 60
1 0.118451 0.0933481 0.00147003 -0.00406281 0.0709529 -0.240335 0.00125 61
1 0.0837035 0.0398723 0.00155782 0.0689301 0.0306733 0.0485293 0.00125 62
1 0.0270948 0.226881 0.00194028 0.0322895 0.0178182 -0.208072 0.00125 63
1 0.137981 0.194771 0.00190942 -0.0137451 0.0502259 -0.0861536 0.00125 64
1 0.020141 0.125074 0.00168051 -0.0630949 0.00676344 -0.215819 0.00125 65
1 0.13083 0.0425962 0.00193111 0.072054 -0.0222929 -0.0303687 0.00125 66
1 0.0740522 0.109621 0.00140233 -0.0281305 -0.00942394 -0.240696 0.00125 67
1 0.0267169 0.11225 0.00136736 0.0197322 -0.0497305 -0.214137 0.00125 68
1 0.251527 0.171171 0.00149376 0.0889339 0.0100851 0.0824925 0.00125 69
1 0.023991 0.0486623 0.0012642 -0.0508852 -0.0367333 -0.176899 0.00125 70
1 0.153768 0.0785949 0.00219208 0.0785457 0.00643208 -0.0233201 0.00125 71
1 0.0478543 0.256928 0.00153574 0.0132972 0.017219 -0.261215 0.00125 72
1 0.0405417 0.14372 0.00125595 0.034508 -0.0323797 -0.205806 0.00125 73
1 0.151002 0.128763 0.00198231 -0.020271 -0.0503935 -0.217473 0.00125 74
1 0.0600763 0.0481594 0.00123878 -0.00568649 -0.0418609 0.149647 0.00125 75
1 0.188815 0.0264071 0.00130868 -0.00220488 -0.0335191 -0.240593 0.00125 76
1 0.123438 0.0849267 0.00168839 0.00497545 -0.0199962 -0.0521228 0.00125 77
1 0.00892623 0.0012147 0.00138532 0.0246288 0.00200004 0.111759 0.00125 78
1 0.202056 0.0229056 0.00200545 -0.0376019 0.0624608 -0.0422082 0.00125 79
1 0.110508 0.0359127 0.0014752 -0.0113818 -0.0158928 -0.127634 0.00125 80
1 0.152044 0.0167802 0.00187199 0.0257555 -0.0137317 -0.170871 0.00125 81
1 0.189132 0.194013 0.00131142 -0.021749 0.0183034 -0.0926571 0.00125 82
1 0.00616167 0.0986348 0.0017976 -0.045763 -0.0137043 -0.0936184 0.00125 83
1 0.00715026 0.091985 0.00150918 0.0591727 -0.0356079 -0.214536 0.00125 84
1 0.0952073 0.085296 0.00129659 -0.0249836 0.0125054 -0.247333 0.00125 85
1 0.24258 0.228294 0.00168208 -0.0472983 0.0735938 -0.150638 0.00125 86
1 0.0891427 0.0893758 0.00142718 0.0284107 -0.00871342 -0.26229 0.00125 87
1 0.0304017 0.144885 0.00136521 -0.037996 -0.0033531 0.186863 0.00125 88
1 0.231218 0.0910616 0.00180862 0.0325207 0.00155991 -0.138551 0.00125 89
1 0.160883 0.07577 0.00127551 0.0493013 0.0520157 -0.140833 0.00125 90
1 0.0718508 0.176216 0.00133696 -0.0236706 0.0227379 -0.0889108 0.00125 91
1 0.207002 0.128284 0.00130899 -0.0282806 -0.0444129 -0.269657 0.00125 92
1 0.103562 0.108732 0.00157862 -0.0202067 0.0420366 -0.0908997 0.00125 93
1 0.0437101 0.00534838 0.00154095 0.0537986 -0.0105239 0.0307955 0.00125 94
1 0.225424 0.00313022 0.00158245 -0.0117063 0.0498077 -0.170084 0.00125 95
1 0.121166 0.208465 0.00137882 -0.0231461 -0.0018823 -0.265826 0.00125 96
1 0.0470738 0.0239488 0.00143883 0.0387846 0.0207258 -0.159825 0.00125 97
1 0.139578 0.110564 0.00246602 -0.00182349 -0.0680244 0.00163539 0.00125 98
1 0.0711761 0.0584211 0.00190635 -0.047369 0.0611312 -0.135211 0.00125 99
1 0.249306 0.0557007 0.00128736 0.0253931 -0.0210326 0.240208 0.00125 100
1 0.0920496 0.246024 0.00133084 0.0532217 -0.0389096 -0.0227548 0.00125 101
1 0.126098 0.101796 0.00145982 -0.0241606 -0.0296761 0.0764754 0.00125 102
1 0.0998342 0.211198 0.00139897 0.0211932 0.0185761 -0.0847805 0.00125 103
1 0.140193 0.212181 0.00131674 -0.0517184 0.0242361 0.0602855 0.00125 104
1 0.0444864 0.0246279 0.00152257 -0.00594407 -0.0331864 -0.188247 0.00125 105
1 0.131826 0.0730345 0.00139826 -0.0465069 -0.0613762 0.130406 0.00125 106
1 0.0422393 0.0923294 0.0017797 0.0154548 -0.0197433 -0.112013 0.00125 107
1 0.160151 0.173026 0.001782 -0.0114207 -0.0250608 -0.152139 0.00125 108
1 0.0348024 0.0517225 0.00170364 -0.0397471 0.041016 -0.0955364 0.00125 109
1 0.205137 0.190252 0.00167209 0.00575095 -0.02667 -0.205613 0.00125 110
1 0.00948475 0.102352 0.00133185 -0.0333229 -0.0493372 -0.196376 0.00125 111
1 0.115999 0.0765435 0.00126174 -0.0164816 0.0150685 0.235423 0.00125 112
1 0.0983109 0.159747 0.00218361 -0.0574361 0.0831615 -0.107082 0.00125 113
1 0.00550985 0.0715676 0.00196052 0.00380383 0.0230463 -0.0882075 0.00125 114
1 0.117846 0.178186 0.00181894 -0.0467719 -0.0377521 -0.183783 0.00125 115
1 0.0585279 0.0581868 0.00198693 0.0162943 -0.0526938 -0.13347 0.00125 116
1 0.149667 0.00768904 0.00125583 0.0191149 -0.0709494 0.200699 0.00125 117
1 0.0936886 0.257141 0.00182919 -0.0133286 0.0241916 -0.17019 0.00125 118
1 0.100346 0.168667 0.0013376 -0.0474482 0.0413468 0.207952 0.00125 119
1 0.23899 0.121927 0.00143858 -0.0692581 0.0383316 -0.235089 0.00125 120
1 0.254131 0.13838 0.00187615 -0.055519 0.0114875 -0.0644993 0.00125 121
1 0.24732 0.0291677 0.00140665 -0.04545 -0.0531195 -0.175296 0.00125 122
1 0.169939 0.129374 0.00181884 0.0306397 0.00960046 -0.162107 0.00125 123
1 0.199126 0.20075 0.00175893 -0.0563152 -0.0540844 -0.230515 0.00125 124
1 0.100602 0.229081 0.00162741 -0.0070342 -0.00495729 -0.163949 0.00125 125
1 0.0675107 0.245402 0.00171181 -0.00116106 0.0159356 -0.160618 0.00125 126
1 0.130875 0.0937965 0.00208807 -0.0400097 0.00151418 -0.0286434 0.00125 127
1 0.194617 0.02233 0.00132688 -0.0353691 0.00506113 0.107904 0.00125 128
1 0.223894 0.216184 0.00141744 -0.0461117 0.00664141 -0.206042 0.00125 129
1 0.162678 0.0409661 0.00175622 -0.0794887 0.00899808 -0.149089 0.00125 130
1 0.172881 0.0136454 0.00206544 0.033621 -0.00832504 -0.182187 0.00125 131
1 0.238246 0.071601 0.00155329 0.00107714 -0.0188432 -0.225781 0.00125 132
1 0.127245 0.126465 0.0012489 0.00381721 -0.0280929 0.0193658 0.00125 133
1 0.14981 0.185725 0.00198398 -0.0379504 0.000637444 -0.058559 0.00125 134
1 0.0961238 0.0972144 0.00248492 0.0777757 -0.025841 -0.0227743 0.00125 135
1 0.0320059 0.213721 0.00171477 -0.0225873 -0.0508226 -0.090091 0.00125 136
1 0.0281717 0.23226 0.00147759 0.00175715 0.019373 -0.239612 0.00125 137
1 0.0328622 0.106324 0.00140763 0.0708121 0.00398633 -0.19312 0.00125 138
1 0.0822557 0.123435 0.00231282 -0.032803 -0.0403706 -0.106786 0.00125 139
1 0.0938431 0.0257188 0.00168143 0.0298456 0.0260862 -0.0653719 0.00125 140
1 0.0377172 0.0517714 0.00234583 -0.0778285 0.0619773 0.0214711 0.00125 141
1 0.224942 0.130644 0.00128029 -0.0838663 -0.0516154 -0.0324774 0.00125 142
1 0.193005 0.0673412 0.00162157 0.0259609 -0.0110071 -0.0346704 0.00125 143
1 0.114794 0.20173 0.00238196 -0.00831937 0.0511288 -0.0333817 0.00125 144
1 0.0790918 0.018779 0.00176672 0.104771 0.0172054 -0.163321 0.00125 145
1 0.170453 0.0861098 0.00144181 0.00518234 0.0340973 -0.0987851 0.00125 146
1 0.0627437 0.177422 0.00137301 -0.0252566 -0.0160518 -0.117719 0.00125 147
1 0.212608 0.0763526 0.00137917 -0.0321146 -0.0444861 0.201654 0.00125 148
1 0.157559 0.165832 0.00129784 -0.0145589 0.0100756 0.0610266 0.00125 149
1 0.141313 0.137208 0.00126242 -0.016138 0.00202747 0.0229116 0.00125 150
1 0.170733 0.146644 0.00162437 -0.0227795 -0.0277718 -0.156035 0.00125 151
1 0.00261969 0.197403 0.00123318 0.086957 -0.00516953 0.111363 0.00125 152
1 0.0752701 0.151445 0.00142691 0.00983169 0.0669858 0.162085 0.00125 153
1 0.0563764 0.0069704 0.00186541 -0.0101527 0.00930386 -0.0819471 0.00125 154
1 0.242964 0.125934 0.00123537 -0.0120433 -0.0256195 0.0878216 0.00125 155
1 0.210838 0.206021 0.00128043 -0.0334077 -0.0436795 0.211694 0.00125 156
1 0.148567 0.0798317 0.00127674 0.0592294 -0.0347041 0.0644991 0.00125 157
1 0.116328 0.180615 0.00126738 0.0285082 0.0159112 0.249762 0.00125 158
1 0.0530685 0.197554 0.00151214 -0.0341411 -0.0519867 0.158796 0.00125 159
1 0.223077 0.174377 0.00223473 -0.017735 0.0709885 -0.170563 0.00125 160
1 0.061721 0.0500346 0.00190841 0.0117602 0.0154884 -0.209759 0.00125 161
1 0.0302847 0.206138 0.00220308 -0.0432049 0.0327864 -0.0804088 0.00125 162
1 0.108646 0.165347 0.00132693 -0.0897236 0.0304767 0.0168602 0.00125 163
1 0.230969 0.152041 0.00132014 0.0634184 0.0233609 -0.25211 0.00125 164
1 0.120896 0.185773 0.00216567 -0.0319434 0.0284503 -0.0929835 0.00125 165
1 0.232378 0.22756 0.00174694 -0.0156481 -0.0501426 -0.0508745 0.00125 166
1 0.142968 0.18769 0.00140393 -0.0210535 0.0012573 0.162202 0.00125 167
1 0.0951447 0.236848 0.00140632 -0.00744601 0.0120786 0.13205 0.00125 168
1 0.111514 0.0978941 0.0015845 0.0175864 0.0166932 0.025347 0.00125 169
1 0.0319597 0.0475653 0.00132425 -0.0761465 0.0362361 -0.120778 0.00125 170
1 0.0922155 0.0792892 0.00141374 -0.0120826 0.0736255 -0.187063 0.00125 171
1 0.204088 0.20198 0.00214048 -0.00663344 -0.0464108 -0.0522337 0.00125 172
1 0.006225 0.158102 0.00220992 0.0110228 -0.0102934 -0.0509916 0.00125 173
1 0.0848426 0.0370152 0.00131982 0.0426726 -0.0113291 0.0946081 0.00125 174
1 0.194101 0.209548 0.00149523 -0.0265799 0.0195032 -0.258267 0.00125 175
1 0.128472 0.0337016 0.00123756 0.00862536 -0.0129238 0.165076 0.00125 176
1 0.130663 0.196175 0.00171615 -0.026456 0.00236631 -0.180664 0.00125 177
1 0.0892939 0.242722 0.00130615 -0.00149622 0.124103 -0.0191627 0.00125 178
1 0.00519617 0.252988 0.0016782 0.0282327 0.0134664 -0.210413 0.00125 179
1 0.220113 0.113985 0.00135848 0.0241137 0.0082714 -0.202456 0.00125 180
1 0.229329 0.0150355 0.00182523 0.0380425 0.00397854 -0.160134 0.00125 181
1 0.0225568 0.0143868 0.00205304 0.0355564 -0.0212962 -0.195055 0.00125 182
1 0.0704892 0.186243 0.0020106 0.0394152 0.0399157 -0.125419 0.00125 183
1 0.0617502 0.128803 0.00134983 0.0248503 -0.054614 0.23838 0.00125 184
1 0.0439457 0.137666 0.00132783 0.0828148 0.0300715 0.0221391 0.00125 185
1 0.147131 0.0750424 0.00136386 -0.0184504 -0.00680934 -0.144653 0.00125 186
1 0.210622 0.0176008 0.00125069 0.00761447 0.0236989 -0.145739 0.00125 187
1 0.0669506 0.0227017 0.00222885 -0.0255353 -0.0206082 -0.0810951 0.00125 188
1 0.155102 0.0431952 0.0018645 0.0593384 -0.0144939 -0.184708 0.00125 189
1 0.0115283 0.027066 0.00149189 0.00893178 0.0283309 -0.173534 0.00125 190
1 0.139628 0.0816458 0.00236508 -0.0928227 0.0289448 -0.0711383 0.00125 191
1 0.0147465 0.218301 0.00199496 -0.0195621 0.0205294 -0.181469 0.00125 192
1 0.122498 0.0625419 0.00207672 0.0446683 0.0344205 -0.0996182 0.00125 193
1 0.176568 0.0249052 0.00223797 0.0139868 -0.00856515 -0.134907 0.00125 194
1 0.0821749 0.0782968 0.00190181 0.0467743 0.0282825 -0.0840749 0.00125 195
1 0.106816 0.121645 0.00222082 0.0127364 0.0121307 -0.0417676 0.00125 196
1 0.129284 0.12379 0.0014119 -0.00351638 -0.0488335 -0.146718 0.00125 197
1 0.061885 0.118434 0.00146722 -0.0278188 0.0308566 -0.222329 0.00125 198
1 0.0926375 0.146698 0.00136499 -0.0333055 0.00996219 -0.103374 0.00125 199
1 0.0113979 0.257066 0.00132303 0.0727106 0.0143888 -0.239464 0.00125 200
1 0.0631284 0.249324 0.00238481 0.0791019 0.0316356 -0.105778 0.00125 201
1 0.136511 0.24102 0.00227144 -0.000745023 -0.0681369 -0.00158505 0.00125 202
1 0.142606 0.199546 0.00159469 0.0216331 0.00684713 -0.165183 0.00125 203
1 0.137047 0.146159 0.0023064 0.0136686 -0.0211313 -0.0551346 0.00125 204
1 0.238658 0.239121 0.00238041 0.0205288 -0.00044896 -0.0473598 0.00125 205
1 0.0720636 0.24415 0.00145074 -0.00992493 0.0674262 0.0404852 0.00125 206
1 0.0121549 0.195994 0.00174484 -0.0245397 -0.118261 -0.113749 0.00125 207
1 0.170085 0.144071 0.0021715 -0.0167456 -0.0127946 -0.0583887 0.00125 208
1 0.240172 0.244642 0.00164192 -0.052628 0.0515595 -0.178162 0.00125 209
1 0.0500781 0.19366 0.00200291 -0.00217818 -0.0489894 -0.0596669 0.00125 210
1 0.176127 0.183825 0.0014003 0.0945434 0.0106607 0.173755 0.00125 211
1 0.164658 0.0731613 0.00131647 -0.0671042 -0.0460178 0.0302775 0.00125 212
1 0.199144 0.253256 0.00136571 0.0981312 0.0288787 0.11252 0.00125 213
1 0.214296 0.0514267 0.00175406 0.00209428 -0.0156291 -0.118513 0.00125 214
1 0.20095 0.0445632 0.00125914 -0.0493122 0.0492782 -0.255931 0.00125 215
1 0.155439 0.00377001 0.00127987 -0.0419419 -0.00321017 0.102481 0.00125 216
1 0.0857005 0.112434 0.00187896 0.0125269 0.0197414 -0.0592969 0.00125 217
1 0.161863 0.178106 0.00155684 -0.00950851 -0.0259398 -0.182887 0.00125 218
1 0.107011 0.155997 0.00223618 0.0134141 0.00594743 -0.00689064 0.00125 219
1 0.0981624 0.228278 0.00176353 0.0181218 0.0308226 -0.104659 0.00125 220
1 0.153006 0.214057 0.00200271 -0.052452 -0.00293548 -0.164878 0.00125 221
1 0.109914 0.0586872 0.00206471 0.018124 -0.0015755 -0.0634511 0.00125 222
1 0.0521157 0.245141 0.00141801 -0.0716949 -0.0663896 0.151091 0.00125 223
1 0.186317 0.168261 0.00131938 0.123175 0.0520627 -0.0234917 0.00125 224
1 0.0920476 0.163279 0.00152554 -0.00974876 -0.000616421 -0.0493516 0.00125 225
1 0.193904 0.0646883 0.00230667 0.0351159 -0.0124676 -0.0220322 0.00125 226
1 0.0722826 0.0364901 0.00131758 0.0742668 0.0720094 0.0543015 0.00125 227
1 0.0670323 0.148713 0.00204567 0.0604601 -0.00188568 0.0275824 0.00125 228
1 0.051395 0.224673 0.00188021 0.00316518 -0.0428503 -0.138028 0.00125 229
1 0.163942 0.00854209 0.00141373 0.0305101 -0.0612466 -0.222035 0.00125 230
1 0.0359485 0.134341 0.00242503 -0.0456576 -0.0444876 -0.0218792 0.00125 231
1 0.00160636 0.174387 0.00167043 0.0302134 0.074984 -0.231436 0.00125 232
1 0.18205 0.0235534 0.00160786 0.00237266 0.0786715 -0.117515 0.00125 233
1 0.190838 0.125554 0.0015142 0.0744832 -0.0043128 -0.126666 0.00125 234
1 0.242753 0.149731 0.00128415 -0.0253905 -0.0291174 -0.24712 0.00125 235
1 0.0782807 0.00720977 0.00125432 0.0136413 0.00771354 0.0863885 0.00125 236
1 0.11921 0.209855 0.00234706 0.0222997 -0.0114438 -0.0438325 0.00125 237
1 0.243335 0.169701 0.00164084 0.0104138 0.126125 -0.0805936 0.00125 238
1 0.107946 0.25473 0.00139946 -0.0196645 0.00121329 0.213165 0.00125 239
1 0.0729628 0.224823 0.00203479 -0.0140587 0.0617509 -0.0850334 0.00125 240
1 0.212263 0.210922 0.00134028 -0.0238806 -0.0160478 0.0768744 0.00125 241
1 0.0258753 0.119391 0.00199798 0.0177376 0.0782548 -0.0934642 0.00125 242
1 0.178948 0.230817 0.00208952 0.0756271 0.013806 -0.117918 0.00125 243
1 0.19102 0.167049 0.00140497 -0.0747063 0.0478726 -0.0107856 0.00125 244
1 0.173791 0.238954 0.00167567 -0.00253176 -0.0047598 -0.0873064 0.00125 245
1 0.101308 0.0632184 0.0015602 0.00856831 -0.0364545 -0.191552 0.00125 246
1 0.0322961 0.0400677 0.00137735 0.0320279 0.016156 0.0830673 0.00125 247
1 0.256597 0.000964384 0.00140397 0.00725754 -0.0554211 -0.234087 0.00125 248
1 0.00305167 0.190122 0.00125652 0.0782764 -0.0103383 -0.0129594 0.00125 249
1 0.156438 0.217857 0.00123945 -0.00325893 0.013266 -0.070714 0.00125 250
1 0.0907062 0.141584 0.00222316 0.0112427 0.0656888 -0.0805842 0.00125 251
1 0.19583 0.19764 0.00187987 -0.00584108 -0.00639754 -0.0692298 0.00125 252
1 0.238775 0.050826 0.00177241 -0.0528608 -0.0015253 -0.219186 0.00125 253
1 0.234696 0.0583318 0.00221968 0.0108364 0.00996969 -0.154664 0.00125 254
1 0.0160816 0.055042 0.00124276 0.0115064 -0.00760814 0.172287 0.00125 255
1 0.144046 0.122723 0.00124575 -0.0265097 0.0506196 -0.161926 0.00125 256
1 0.163815 0.215022 0.00189954 -0.0610315 0.00690304 -0.168514 0.00125 257
1 0.00331547 0.215332 0.0022381 0.0760615 0.00450425 -0.0649206 0.00125 258
1 0.173552 0.154186 0.00143615 0.0380308 -0.0201264 -0.113129 0.00125 259
1 0.0301946 0.0908928 0.00145647 -0.0271972 0.00460155 -0.274508 0.00125 260
1 0.163475 0.176123 0.00153889 0.0199335 -0.00432805 -0.207868 0.00125 261
1 0.0979429 0.213369 0.00144422 0.0227398 -0.0560341 -0.117522 0.00125 262
1 0.195966 0.0267707 0.0018857 0.0165506 0.0197216 -0.0732674 0.00125 263
1 0.151045 0.23928 0.00181787 -0.0324573 -0.00346766 -0.179052 0.00125 264
1 0.188577 0.0661629 0.00215803 -0.0353392 0.0187953 -0.0691072 0.00125 265
1 0.196445 0.0339411 0.00190524 0.0123008 -0.0236542 -0.163176 0.00125 266
1 0.199911 0.00364833 0.00143966 0.0304033 0.00979846 -0.243962 0.00125 267
1 0.064358 0.14508 0.00158175 -0.0253246 0.0292425 -0.231503 0.00125 268
1 0.198354 0.19062 0.00169081 -0.0190215 0.0488398 -0.102045 0.00125 269
1 0.0952879 0.016715 0.00161227 0.0154326 -0.0444938 -0.109333 0.00125 270
1 0.106323 0.0615261 0.00181092 0.0200605 -0.0103149 -0.125962 0.00125 271
1 0.243726 0.176585 0.00128027 0.0206128 -0.0264116 -0.272731 0.00125 272
1 0.0217362 0.0294695 0.0015507 -0.0152391 0.0529379 -0.259776 0.00125 273
1 0.11635 0.175913 0.00138801 -0.0153631 0.0558454 -0.196793 0.00125 274
1 0.085588 0.188714 0.00181586 -0.00765189 -0.00932463 -0.0600349 0.00125 275
1 0.0530167 0.181949 0.00171153 -0.0159464 -0.00431919 -0.146879 0.00125 276
1 0.107984 0.213569 0.00246894 0.0237758 -0.0287029 -0.0358052 0.00125 277
1 0.204004 0.101897 0.00150457 -0.00942857 0.0289883 0.138265 0.00125 278
1 0.244686 0.130766 0.00134652 -0.00430997 0.0840948 0.104648 0.00125 279
1 0.00780602 0.183888 0.00135227 0.039189 -0.0325909 0.0739694 0.00125 280
1 0.0381764 0.107902 0.0018238 0.0900336 -0.00280204 -0.0511781 0.00125 281
1 0.242263 0.140241 0.00196037 -0.000868045 0.00333735 -0.11641 0.00125 282
1 0.151603 0.101966 0.00174233 -0.0114705 -0.0038365 -0.162901 0.00125 283
1 0.249318 0.194791 0.00203022 -0.00479441 -0.0266931 -0.0709961 0.00125 284
1 0.19836 0.151346 0.00127434 0.013552 -0.04851 -0.0516696 0.00125 285
1 0.133585 0.242097 0.00218195 -0.0159348 0.00248282 -0.170205 0.00125 286
1 0.254156 0.000223161 0.00184923 0.0290314 0.0340525 -0.103459 0.00125 287
1 0.216926 0.0974184 0.00135646 0.0424963 -0.056842 -0.295529 0.00125 288
1 0.0827657 0.16729 0.00132406 0.0578611 -0.0158522 -0.135458 0.00125 289
1 0.132358 0.0883635 0.00163755 0.0303717 0.0416306 -0.0407263 0.00125 290
1 0.126489 0.123338 0.00133718 -0.030505 -0.00510026 -0.249172 0.00125 291
1 0.165352 0.188809 0.00194606 0.00938668 -0.0187976 -0.220052 0.00125 292
1 0.158809 0.0371213 0.0016984 0.074355 -0.0340836 -0.222749 0.00125 293
1 0.1577 0.0051979 0.00135265 -0.0422648 -0.00470076 -0.238273 0.00125 294
1 0.189957 0.182063 0.00125869 0.00510673 -0.0152725 -0.0559335 0.00125 295
1 0.0983761 0.0464437 0.00141838 0.0245226 -0.00164676 0.0116967 0.00125 296
1 0.244156 0.024774 0.00149304 -0.0530772 -0.00564457 -0.153147 0.00125 297
1 0.221709 0.239895 0.00160407 -0.0785267 0.0667884 -0.1521 0.00125 298
1 0.188989 0.100934 0.00149392 -0.01166 -0.0494862 -0.146058 0.00125 299
1 0.128173 0.138229 0.00152097 0.0906178 -0.0393962 -0.198301 0.00125 300
1 0.0394929 0.00648408 0.00192461 0.00175723 0.0457675 -0.05292 0.00125 301
1 0.00798277 0.189519 0.00134173 0.0355441 0.019152 0.141338 0.00125 302
1 0.0589844 0.0386781 0.00219296 -0.0416516 -0.0506634 -0.0377001 0.00125 303
1 0.0993465 0.0437718 0.00199738 -0.0423545 -0.0663497 -0.0731859 0.00125 304
1 0.00776922 0.166441 0.00127668 0.0470749 -0.0554026 -0.166705 0.00125 305
1 0.223889 0.177332 0.00143517 -0.00062853 0.00939263 -0.0913982 0.00125 306
1 0.00607363 0.0687984 0.00147416 -0.024772 -0.0176688 -0.065654 0.00125 307
1 0.220028 0.0397394 0.00207219 0.042697 -0.0195245 -0.112516 0.00125 308
1 0.194186 0.192543 0.00202632 -0.0661009 0.0124968 0.000788055 0.00125 309
1 0.140161 0.10593 0.00187533 -0.0138438 0.00272905 -0.0814533 0.00125 310
1 0.0063729 0.0115003 0.00126498 0.0268403 -0.0245861 -0.210624 0.00125 311
1 0.0241869 0.101636 0.00178333 0.0486215 -0.0104785 -0.169611 0.00125 312
1 0.213503 0.230598 0.00207327 -0.00288374 0.0357195 -0.0872992 0.00125 313
1 0.230157 0.012619 0.00133584 0.0124511 -0.0276705 0.0746642 0.00125 314
1 0.103147 0.214604 0.00130282 -0.0377264 -0.02664 0.155219 0.00125 315
1 0.108824 0.102141 0.00197604 -0.0168956 -0.00855248 -0.0593988 0.00125 316
1 0.203904 0.0147527 0.00147719 -0.0378459 -0.0219876 -0.269307 0.00125 317
1 0.239636 0.0663844 0.00158338 0.00149028 0.0241241 -0.060003 0.00125 318
1 0.213938 0.0812606 0.00235868 0.0976151 -0.097519 0.0153514 0.00125 319
1 0.120581 0.0708732 0.0013676 -0.00139268 0.0127793 -0.207714 0.00125 320
1 0.108015 0.19178 0.00213599 0.040481 -0.068905 -0.00758057 0.00125 321
1 0.150197 0.173705 0.00126883 -0.0465464 0.0133812 0.241014 0.00125 322
1 0.242282 0.129979 0.00250741 0.082882 -0.00585842 -0.0101636 0.00125 323
1 0.0740363 0.0393185 0.00155952 0.0619679 -0.0463044 -0.184117 0.00125 324
1 0.171985 0.00667339 0.0012715 -0.0320582 0.0742475 0.13705 0.00125 325
1 0.246283 0.107905 0.00186652 0.0163306 0.012034 -0.236663 0.00125 326
1 0.206267 0.21386 0.0013741 0.00762823 0.0152373 0.00221545 0.00125 327
1 0.249266 0.0366321 0.00208093 0.0218702 0.0514583 -0.15852 0.00125 328
1 0.206488 0.184925 0.00230613 -0.0815603 0.045783 -0.111999 0.00125 329
1 0.030664 0.135269 0.00225381 -0.0696253 -0.00254491 -0.0769309 0.00125 330
1 0.212954 0.0363191 0.001351 -0.0273648 0.0337237 0.0157073 0.00125 331
1 0.235822 0.00570747 0.00152806 0.00363261 0.044603 -0.167466 0.00125 332
1 0.132393 0.148217 0.00126332 0.0518448 0.0468064 0.059887 0.00125 333
1 0.249211 0.226509 0.0012317 -0.067385 -0.113465 0.105272 0.00125 334
1 0.185485 0.143963 0.00190653 -0.0475426 0.0204684 -0.169734 0.00125 335
1 0.189017 0.179182 0.00124595 0.0547175 0.0490702 0.0513983 0.00125 336
1 0.0296959 0.250028 0.00195808 0.0595497 0.0766771 -0.184633 0.00125 337
1 0.139259 0.13229 0.00218122 0.0395224 -0.0100683 -0.115049 0.00125 338
1 0.0350182 0.116993 0.00125486 0.0610165 -0.00484878 -0.224008 0.00125 339
1 0.0622942 0.21854 0.00171818 -0.0215465 0.0178785 -0.0622685 0.00125 340
1 0.157922 0.0587697 0.0018259 -0.00654001 -0.00230186 -0.180207 0.00125 341
1 0.182553 0.227238 0.00231793 -0.0309252 0.0170477 0.0100984 0.00125 342
1 0.242741 0.0352002 0.00134796 0.0502134 0.0419325 -0.190562 0.00125 343
1 0.110892 0.0160434 0.00134825 -0.054724 0.00412852 0.0671606 0.00125 344
1 0.210828 0.104447 0.00143924 -0.0584309 0.0175108 0.226104 0.00125 345
1 0.247256 0.14813 0.00127521 0.0158876 -0.0459783 -0.199514 0.00125 346
1 0.0593054 0.170951 0.00205733 -0.017358 0.0129592 -0.114826 0.00125 347
1 0.0797263 0.181525 0.00195556 -0.0360732 0.0243638 -0.171435 0.00125 348
1 0.0227661 0.218466 0.00239922 0.0193514 0.0741294 -0.0403331 0.00125 349
1 0.174477 0.1567 0.00232187 -0.0421385 -0.0413537 -0.059096 0.00125 350
1 0.235548 0.0143452 0.00181321 0.0252576 -0.00266385 -0.0930215 0.00125 351
1 0.144609 0.168282 0.00126311 -0.0179211 0.0324178 0.11807 0.00125 352
1 0.20651 0.0709673 0.00163763 0.0144302 0.0413016 -0.103473 0.00125 353
1 0.174691 0.115275 0.00203292 -0.035219 -0.0550888 -0.0808253 0.00125 354
1 0.174203 0.00866899 0.00246816 0.0354903 -0.0301391 -0.0214881 0.00125 355
1 0.15118 0.192538 0.00129025 -0.0608042 0.0464446 -0.231037 0.00125 356
1 0.10769 0.0565784 0.00228497 -0.00341565 0.0443994 -0.0694869 0.00125 357
1 0.240669 0.0829818 0.00225868 0.0446487 -0.0985626 -0.141029 0.00125 358
1 0.0311933 0.21121 0.0012674 0.0451946 -0.0200603 -0.144589 0.00125 359
1 0.045139 0.208186 0.00175955 -0.0123566 -0.0092562 -0.0896016 0.00125 360
1 0.248402 0.115948 0.00151328 -0.0232146 -0.0115 -0.0923864 0.00125 361
1 0.231681 0.193663 0.00221825 0.0390454 0.0181679 -0.0438851 0.00125 362
1 0.150229 0.0150002 0.00132759 -0.00802983 0.0182225 0.124434 0.00125 363
1 0.23726 0.0672926 0.00251346 0.0115492 0.0411894 -0.0383455 0.00125 364
1 0.00246252 0.0624056 0.00133806 -0.0337107 -0.000434033 -0.153863 0.00125 365
1 0.065263 0.0431046 0.00141224 -0.0150573 -0.0103603 0.216412 0.00125 366
1 0.157995 0.232149 0.00169436 -0.0275322 0.0382981 -0.0681279 0.00125 367
1 0.16393 0.194098 0.00146564 0.0530587 0.0323812 -0.170434 0.00125 368
1 0.0268724 0.184341 0.00184175 0.0278915 -0.049999 -0.232041 0.00125 369
1 0.111203 0.245018 0.00159946 0.00613441 0.104061 -0.0834689 0.00125 370
1 0.0719743 0.122314 0.00233499 -0.0374082 0.0933621 -0.00435564 0.00125 371
1 0.0987697 0.0537529 0.00177496 -0.0398865 -0.00395748 -0.13664 0.00125 372
1 0.193178 0.221513 0.00138075 0.0254073 -0.0137852 -0.134868 0.00125 373
1 0.214062 0.215791 0.00159672 -0.0326532 0.0332152 -0.220868 0.00125 374
1 0.164674 0.203551 0.00187858 0.0153765 -0.00419625 -0.117708 0.00125 375
1 0.241015 0.127339 0.00199899 0.0377907 0.0178103 -0.178737 0.00125 376
1 0.105605 0.212634 0.00246134 0.0212467 -0.0326979 -0.0550588 0.00125 377
1 0.0829107 0.0351321 0.00161295 0.0280661 0.0412846 -0.0551235 0.00125 378
1 0.0695103 0.256439 0.00169149 0.0174204 0.0195685 -0.192944 0.00125 379
1 0.121247 0.0306466 0.00197321 0.0488713 0.0458235 -0.165523 0.00125 380
1 0.0358172 0.19235 0.00235369 0.00473476 -0.0211169 -0.104383 0.00125 381
1 0.0807832 0.214922 0.00124914 -0.0208082 0.0519564 0.140438 0.00125 382
1 0.223668 0.169965 0.00195552 -0.00347988 0.0293988 -0.084735 0.00125 383
1 0.197405 0.173894 0.00133066 0.021804 0.0803445 0.213995 0.00125 384
1 0.00952965 0.0927079 0.00123795 -0.0141232 -0.014026 -0.0768332 0.00125 385
1 0.0757154 0.00594697 0.00127986 0.0422463 0.0745422 -0.0568856 0.00125 386
1 0.190982 0.18459 0.00146539 0.0219029 0.0149599 -0.198781 0.00125 387
1 0.0219808 0.113525 0.00146129 0.0292331 0.0287893 0.0977472 0.00125 388
1 0.028728 0.0550675 0.00123192 -0.0404159 -0.0788891 -0.165296 0.00125 389
1 0.0464007 0.223211 0.0018156 -0.0315302 -0.035178 -0.215849 0.00125 390
1 0.245997 0.0317102 0.00190719 -0.00930774 0.0209117 -0.106688 0.00125 391
1 0.00074175 0.13431 0.0017405 0.0119355 -0.00158544 -0.213556 0.00125 392
1 0.0356744 0.162115 0.00160483 0.000287669 0.0281323 -0.150838 0.00125 393
1 0.0538133 0.037053 0.00172698 0.00450667 0.0023409 -0.188196 0.00125 394
1 0.0616834 0.0119672 0.00239258 0.0186771 0.0296287 -0.0999883 0.00125 395
1 0.122852 0.00746786 0.0022262 -0.0477928 0.000854339 -0.0475277 0.00125 396
1 0.212042 0.112486 0.00151013 0.0304315 -0.00475016 -0.201478 0.00125 397
1 0.152811 0.051023 0.00130829 0.0194491 -0.0603188 -0.157067 0.00125 398