ITEM: TIMESTEP
1000000
ITEM: NUMBER OF ATOMS
10000
ITEM: BOX BOUNDS pp pp ff
0.0000000000000000e+00 4.4740576625000006e-01
0.0000000000000000e+00 4.4740576625000006e-01
-1.2500000000000001e-02 1.2500000000000001e-02
ITEM: ATOMS type x y z vx vy vz radius id
1 0.248797 0.125142 0.0021104 -0.00332924 -0.0067655 -0.162942 0.00125 1
1 0.139167 0.187139 0.00173294 -0.0059167 -0.00890579 0.105355 0.00125 2
1 0.00749021 0.325791 0.0019425 -0.000542688 -0.0171422 -0.080557 0.00125 3
1 0.0568912 0.378718 0.00161774 -0.00895219 0.0161904 -0.281989 0.00125 4
1 0.213217 0.332267 0.00150482 -0.0112716 -0.0138133 0.0978652 0.00125 5
1 0.365113 0.341535 0.00159442 0.0257422 0.011406 0.096211 0.00125 6
1 0.184731 0.192787 0.00139558 0.00852017 -0.0183042 -0.200786 0.00125 7
1 0.395069 0.356303 0.0012307 -0.0052528 0.00303244 -0.0640388 0.00125 8
1 0.184404 0.269082 0.00136261 -0.00423844 0.00392461 0.185657 0.00125 9
1 0.333949 0.221981 0.00127475 -0.0300967 0.0112406 0.192884 0.00125 10
1 0.110879 0.0564535 0.00155354 0.0163961 -0.00618747 0.103207 0.00125 11
1 0.0877258 0.042717 0.00224964 0.015466 0.00385946 -0.0126791 0.00125 12
1 0.130624 0.419876 0.0013356 0.0133296 -0.0125099 0.191138 0.00125 13
1 0.317817 0.313702 0.00175788 -0.0115738 -0.0101104 -0.154026 0.00125 14
1 0.046682 0.205893 0.00131776 0.00024304 -0.0119959 -0.22288 0.00125 15
1 0.0890222 0.138732 0.00136647 0.0174923 -0.000124824 0.255973 0.00125 16
1 0.225742 0.417288 0.00144617 0.00352413 0.00128503 0.218527 0.00125 17
1 0.0827382 0.30171 0.00217768 0.00799144 -0.0064514 0.0101187 0.00125 18
1 0.408475 0.0350103 0.00127129 0.00332231 -0.0205533 0.192185 0.00125 19
1 0.331746 0.270666 0.00128517 0.000691719 -0.0301064 -0.23213 0.00125 20
1 0.422875 0.29743 0.00208062 -0.00499243 -0.00340598 -0.0777854 0.00125 21
1 0.101615 0.208546 0.00165637 -0.0141574 -0.00498696 0.094734 0.00125 22
1 0.261532 0.387335 0.00145648 0.0352111 -0.0111382 0.00871533 0.00125 23
1 0.229008 0.0668116 0.00147775 -0.00473751 -0.00242971 0.0756442 0.00125 24
1 0.203027 0.390403 0.00154437 -0.02633 0.0119692 0.0706019 0.00125 25
1 0.131264 0.0266434 0.00168857 -0.00664413 0.00437529 0.189355 0.00125 26
1 0.00415552 0.211129 0.00124332 0.00556685 0.00200393 -0.183031 0.00125 27
1 0.433552 0.0289542 0.00125625 0.00305595 -0.00852853 0.194362 0.00125 28
1 0.0812915 0.287118 0.00147367 0.030067 0.00994299 0.105655 0.00125 29
1 0.271214 0.390429 0.00135691 -0.00609167 0.00223165 0.163543 0.00125 30
1 0.1177 0.103018 0.00216215 -0.00962418 -0.0128234 -0.153453 0.00125 31
1 0.0982892 0.0128437 0.00147746 -0.0196908 0.00747403 -0.238968 0.00125 32
1 0.360275 0.208447 0.0016324 -0.00513376 0.00898585 -0.171483 0.00125 33
1 0.353 0.307747 0.00157294 -0.00628969 -0.0178262 -0.229847 0.00125 34
1 0.404516 0.387422 0.00134802 0.0104441 -0.00263739 -0.272727 0.00125 35
1 0.385709 0.0677817 0.00216211 0.00755924 0.0247861 -0.0643221 0.00125 36
1 0.0309892 0.411341 0.00150978 0.00306155 0.00205045 0.218149 0.00125 37
1 0.0935562 0.17901 0.00137243 -0.0183558 0.00864247 -0.238937 0.00125 38
1 0.129613 0.366859 0.00189232 -0.0192608 -0.0148587 -0.0722411 0.00125 39
1 0.0744806 0.15141 0.00171071 -0.00208316 0.00250321 -0.0447692 0.00125 40
1 0.144407 0.0914697 0.00154753 -0.011841 -0.0305177 0.023121 0.00125 41
1 0.332916 0.249512 0.00158148 -0.0160747 -0.00867556 0.0924663 0.00125 42
1 0.233071 0.226359 0.00127385 0.0152045 0.0168387 0.243545 0.00125 43
1 0.0795264 0.182442 0.00226824 -0.0084101 0.0159162 0.0147666 0.00125 44
1 0.0498389 0.0341197 0.0021435 0.00725441 0.038317 -0.0712681 0.00125 45
1 0.194918 0.418041 0.00127189 0.000515991 -0.00722262 -0.232259 0.00125 46
1 0.4238 0.242069 0.00196572 -0.000782858 0.00403571 -0.0651098 0.00125 47
1 0.242516 0.346488 0.00186649 0.0206045 -0.000434746 -0.245227 0.00125 48
1 0.415841 0.145918 0.00166032 0.000588868 0.00341616 -0.244043 0.00125 49
1 0.257459 0.205827 0.00137601 0.016369 -0.0122792 0.159724 0.00125 50
1 0.396192 0.346468 0.00243001 -0.0222461 0.00941365 0.0270693 0.00125 51
1 0.412497 0.0200089 0.00224529 0.000223747 0.00138858 -0.146764 0.00125 52
1 0.0254387 0.257221 0.0012842 -0.00751429 0.0117729 -0.251479 0.00125 53
1 0.100609 0.3461 0.00182779 -0.00236308 -0.0124907 -0.0622158 0.00125 54
1 0.137913 0.103084 0.001308 0.00523429 0.00689941 0.186995 0.00125 55
1 0.370655 0.275386 0.00243375 0.00671444 0.000809494 -0.0795702 0.00125 56
1 0.106783 0.158177 0.00168376 0.00239268 -0.0191725 0.074039 0.00125 57
1 0.217855 0.0836277 0.00213958 0.00404261 0.00509445 -0.19769 0.00125 58
1 0.00164077 0.446428 0.00144837 -0.0338291 0.00883184 -0.233886 0.00125 59
1 0.206321 0.441134 0.00186255 0.00588864 0.00196088 -0.249647 0.00125 60
1 0.0760036 0.432143 0.00143722 0.00962147 -0.00840764 0.240317 0.00125 61
1 0.269683 0.0476699 0.00133849 -0.00539045 -0.00696203 -0.203935 0.00125 62
1 0.432108 0.0588597 0.00166129 -0.00372111 0.00671686 -0.06511 0.00125 63
1 0.0259812 0.293225 0.00244385 -0.0117007 -0.01752 -0.104165 0.00125 64
1 0.287531 0.0122193 0.00224449 -0.0222781 -0.0739865 -0.0500418 0.00125 65
1 0.083933 0.137678 0.00151187 -0.0119145 0.00699579 0.116497 0.00125 66
1 0.176716 0.357003 0.00125272 -0.022666 0.0165681 -0.230553 0.00125 67
1 0.103252 0.425694 0.0013261 -0.00371106 -0.00709908 -0.24177 0.00125 68
1 0.269586 0.172066 0.00177958 0.0100966 0.0371249 -0.216364 0.00125 69
1 0.167561 0.127254 0.00157211 -0.0110679 -0.0134235 -0.234565 0.00125 70
1 0.191701 0.244798 0.00159809 -0.0193872 -0.0131005 -0.175942 0.00125 71
1 0.144914 0.00917777 0.00125119 -0.00600992 0.00544011 0.196626 0.00125 72
1 0.124694 0.0872212 0.00147017 0.0154277 0.013742 -0.232079 0.00125 73
1 0.156486 0.326371 0.00160512 0.0105007 -0.00358668 -0.183414 0.00125 74
1 0.29471 0.0293922 0.00217127 -0.034247 -0.000639079 -0.156989 0.00125 75
1 0.276343 0.142722 0.0023879 0.00300467 -0.00193165 -0.0417144 0.00125 76
1 0.307379 0.0224075 0.00237769 0.0121189 -0.015521 0.0285881 0.00125 77
1 0.422662 0.00894489 0.00203582 0.0303682 0.0355743 -0.0381793 0.00125 78
1 0.102319 0.0436864 0.00163384 0.0677435 0.00519786 -0.0439006 0.00125 79
1 0.0468358 0.0513477 0.00125953 0.0123208 0.0137469 -0.0576776 0.00125 80
1 0.0755949 0.289158 0.00147721 -0.00356541 0.0131543 -0.269747 0.00125 81
1 0.193084 0.358877 0.00140467 0.0233632 -0.00429498 0.209179 0.00125 82
1 0.112749 0.114265 0.00128527 -0.000337004 0.011895 -0.220633 0.00125 83
1 0.258982 0.0808247 0.00133093 0.00366483 0.0014861 0.176792 0.00125 84
1 0.202357 0.176144 0.00123256 -0.00264939 -0.000321246 -0.118325 0.00125 85
1 0.362361 0.0899375 0.00231569 0.0201398 -0.00502718 -0.0453483 0.00125 86
1 0.279315 0.220908 0.00189273 -0.00758431 0.0135816 -0.218978 0.00125 87
1 0.103695 0.309932 0.00135397 -0.0331286 -0.0101981 0.192008 0.00125 88
1 0.399538 0.350767 0.00150258 0.0071085 -0.0147429 0.212679 0.00125 89
1 0.274699 0.192756 0.00129625 0.0177443 -0.00381739 -0.234087 0.00125 90
1 0.196082 0.165691 0.00145138 -0.0112691 -0.0072549 -0.0766589 0.00125 91
1 0.283296 0.248462 0.0014582 -0.0101292 0.0106793 0.129379 0.00125 92
1 0.188186 0.037506 0.00242213 0.00357397 0.0174427 -0.0402549 0.00125 93
1 0.365509 0.0965224 0.00132714 0.0150253 -0.00687033 0.194014 0.00125 94
1 0.401633 0.117295 0.00157637 0.00212645 0.0126881 0.227409 0.00125 95
1 0.288297 0.251773 0.00184326 -0.00151626 0.0102988 -0.207807 0.00125 96
1 0.0879904 0.184725 0.00123466 0.00240089 0.00514582 0.20171 0.00125 97
1 0.380871 0.420244 0.00151194 0.0146017 0.0238282 0.0613428 0.00125 98
1 0.397302 0.106903 0.00204288 -0.0234628 0.015617 -0.1748 0.00125 99
1 0.381164 0.340598 0.00145846 0.00953064 0.00912585 0.220146 0.00125 100
1 0.157663 0.206667 0.00173166 -0.00685501 -0.000484202 0.172296 0.00125 101
1 0.22656 0.177581 0.00125593 -0.0129857 0.00583404 0.212152 0.00125 102
1 0.00486177 0.185581 0.00159442 0.00013868 0.000157551 -0.187262 0.00125 103
1 0.198267 0.363487 0.00131379 -0.0165427 -0.00835805 -0.234252 0.00125 104
1 0.20692 0.416667 0.00168908 -0.00815591 0.0128064 -0.223799 0.00125 105
1 0.0511535 0.196562 0.00132921 -0.00413578 -0.0155197 0.24533 0.00125 106
1 0.194526 0.214291 0.00151713 0.00328768 0.00582357 0.109902 0.00125 107
1 0.4191 0.250419 0.00143091 -0.0025904 -0.015382 0.221478 0.00125 108
1 0.298076 0.0261605 0.00149736 -0.000818152 0.00526043 0.0703466 0.00125 109
1 0.0972983 0.402505 0.00241028 0.0259059 -0.0134741 0.0310955 0.00125 110
1 0.350058 0.176367 0.00124067 0.00986799 0.000250343 0.184932 0.00125 111
1 0.205284 0.322805 0.00138753 0.0160504 -0.00873103 -0.222916 0.00125 112
1 0.071348 0.247504 0.00165954 0.0198771 0.00285328 -0.277575 0.00125 113
1 0.00216779 0.131659 0.00136281 -0.0159748 0.0151976 0.182658 0.00125 114
1 0.108941 0.00907471 0.00127183 0.00505342 -0.00659861 -0.23435 0.00125 115
1 0.283542 0.0717725 0.00128492 0.0104257 -0.0120956 0.183812 0.00125 116
1 0.361677 0.371337 0.00153074 0.00244362 0.0100458 0.12181 0.00125 117
1 0.360358 0.320676 0.00147575 -0.0131713 -0.0210268 -0.22786 0.00125 118
1 0.177819 0.367593 0.00131038 0.00684432 -0.0113564 -0.222785 0.00125 119
1 0.00951646 0.247541 0.00127246 0.0163793 -0.00674005 0.274545 0.00125 120
1 0.144594 0.389108 0.00126352 0.0426594 0.00588566 0.194729 0.00125 121
1 0.0371532 0.0324271 0.00145264 -0.0110448 0.0128189 0.217651 0.00125 122
1 0.119139 0.349646 0.00145278 -0.0079914 0.0267568 -0.188593 0.00125 123
1 0.430421 0.118753 0.00131379 0.0110507 -0.0196229 -0.220864 0.00125 124
1 0.429084 0.36346 0.00123892 0.00142426 -0.0414936 0.246984 0.00125 125
1 0.0595351 0.0191352 0.00123914 -0.00998747 -0.0100136 0.184958 0.00125 126
1 0.239446 0.242177 0.00139456 -0.00246188 -0.0164374 -0.238293 0.00125 127
1 0.410395 0.124324 0.00133313 -0.0082289 0.0120911 -0.232031 0.00125 128
1 0.243601 0.398686 0.00123296 -0.00260348 0.0140908 -0.125049 0.00125 129
1 0.322903 0.364726 0.00148596 -0.00954173 -0.00880364 0.207629 0.00125 130
1 0.155638 0.0202431 0.00134876 -0.00256227 0.00508003 -0.203013 0.00125 131
1 0.357916 0.178261 0.00198034 -0.0260997 -0.00669513 -0.0294564 0.00125 132
1 0.212869 0.159123 0.0016657 0.0123631 -0.0242446 0.151598 0.00125 133
1 0.34305 0.39273 0.00195056 0.00954893 0.0086076 -0.0655601 0.00125 134
1 0.0131429 0.356104 0.00152939 0.008019 0.000487654 0.11083 0.00125 135
1 0.134525 0.099513 0.00141481 0.00289093 0.00536243 0.147625 0.00125 136
1 0.153244 0.0967724 0.00167863 0.0223093 -0.0219647 -0.0534095 0.00125 137
1 0.264255 0.186838 0.00164686 -0.00425909 8.75931e-05 -0.23247 0.00125 138
1 0.0017756 0.248814 0.00147948 0.0414686 -0.0187944 0.220734 0.00125 139
1 0.238185 0.359202 0.00164027 -0.0266611 -0.00662103 0.0502381 0.00125 140
1 0.0485749 0.193628 0.00185943 0.00297607 0.0291573 -0.206863 0.00125 141
1 0.271783 0.355622 0.00149043 0.000700149 0.0255355 0.126782 0.00125 142
1 0.0416261 0.25282 0.00161835 0.00686527 0.00384277 -0.238807 0.00125 143
1 0.264442 0.359483 0.00140805 0.00221786 0.00678389 -0.199365 0.00125 144
1 0.268071 0.326654 0.00124202 0.00286184 0.0136268 -0.214043 0.00125 145
1 0.372605 0.162842 0.00140204 -0.00929534 0.015276 -0.200266 0.00125 146
1 0.262391 0.0960775 0.00220343 -0.00615704 0.00631327 -0.00686295 0.00125 147
1 0.192726 0.0867968 0.00179644 -0.0203071 0.010719 -0.0834074 0.00125 148
1 0.417897 0.447075 0.00147281 -0.00053204 -0.0133741 -0.239274 0.00125 149
1 0.369184 0.134483 0.00199023 0.0188235 -0.020063 -0.181484 0.00125 150
1 0.394612 0.136424 0.0013228 -0.0168459 -0.00476701 -0.234348 0.00125 151
1 0.317027 0.390961 0.00166145 0.0114504 0.0155838 0.201891 0.00125 152
1 0.378182 0.231643 0.00122979 0.000827184 0.0101309 0.00644398 0.00125 153
1 0.370325 0.20437 0.00151764 0.0120906 -0.0146929 -0.214632 0.00125 154
1 0.304281 0.275538 0.0013673 0.0166561 -0.00729829 -0.236279 0.00125 155
1 0.0525813 0.436737 0.00159205 -0.0132451 0.00760304 -0.232377 0.00125 156
1 0.0404142 0.18927 0.00138314 -0.00944586 0.0208439 0.218302 0.00125 157
1 0.430829 0.339252 0.00135311 -0.00814452 -0.0197326 0.258919 0.00125 158
1 0.368246 0.049795 0.00176706 -0.0328832 -0.0191096 -0.213607 0.00125 159
1 0.376626 0.318875 0.0014129 -0.00921245 -0.000165099 -0.225947 0.00125 160
1 0.199038 0.0670815 0.0013446 0.012098 -0.00595603 -0.234473 0.00125 161
1 0.109525 0.1476 0.00124547 0.0122702 0.00185359 -0.234691 0.00125 162
1 0.21635 0.061638 0.0013196 0.0122869 -0.00318278 -0.230586 0.00125 163
1 0.271492 0.447045 0.00162599 -0.00476501 -0.00380081 0.0522285 0.00125 164
1 0.393637 0.146406 0.00138837 -0.00331723 0.0255626 -0.240854 0.00125 165
1 0.00304963 0.41475 0.00140339 -0.00429457 -0.0272537 -0.299131 0.00125 166
1 0.383372 0.327888 0.00143399 0.0044906 0.0099502 0.238863 0.00125 167
1 0.330256 0.160889 0.00139667 -0.0149182 0.0113302 -0.0601112 0.00125 168
1 0.147939 0.347627 0.0019369 0.00564079 0.00112831 -0.199627 0.00125 169
1 0.124811 0.1322 0.00168196 0.0767797 0.0839497 -0.0764983 0.00125 170
1 0.305396 0.364675 0.00131654 0.0021092 0.00697518 -0.220209 0.00125 171
1 0.0520574 0.390158 0.00131757 -0.0245444 -0.00531614 -0.235284 0.00125 172
1 0.35651 0.104679 0.00124281 0.0113133 -0.0138543 -0.0953407 0.00125 173
1 0.296512 0.207217 0.00157599 -0.00741792 -0.00239143 0.138748 0.00125 174
1 0.192989 0.0776351 0.00124604 -0.0101752 -0.000979683 -0.226074 0.00125 175
1 0.242549 0.34218 0.00124077 -0.00107486 -0.0125678 0.188454 0.00125 176
1 0.0288473 0.133475 0.00187258 0.000502843 0.00525374 -0.0559998 0.00125 177
1 0.2183 0.405182 0.00139611 -0.0512647 -0.0392299 -0.280076 0.00125 178
1 0.325459 0.181008 0.00126071 0.000647378 -0.0141154 -0.23523 0.00125 179
1 0.10476 0.163211 0.00138806 -0.000405943 0.00677451 0.226309 0.00125 180
1 0.355963 0.281611 0.00232972 0.00468101 0.00328503 -0.0371929 0.00125 181
1 0.0626177 0.0358533 0.00149439 0.0015543 0.00633807 0.20865 0.00125 182
1 0.300466 0.050802 0.00124545 -0.00511152 0.00310033 -0.222015 0.00125 183
1 0.194568 0.315508 0.00129295 -0.00500626 -0.00277772 -0.247213 0.00125 184
1 0.0466316 0.138378 0.00130354 0.0139595 0.000309409 0.195623 0.00125 185
1 0.240824 0.0388842 0.00148287 0.00586442 0.0374732 0.136254 0.00125 186
1 0.0840561 0.318597 0.00145259 0.0112606 0.0158463 0.230079 0.00125 187
1 0.340582 0.420942 0.00159923 0.00353902 -0.00856758 -0.239249 0.00125 188
1 0.172123 0.111032 0.00135168 -0.0215871 0.0022538 0.189001 0.00125 189
1 0.413388 0.390179 0.00148565 0.0200049 0.00935265 -0.244845 0.00125 190
1 0.0530151 0.325234 0.00123379 0.0093964 0.0074308 0.131891 0.00125 191
1 0.141789 0.241802 0.00183793 0.00233421 -0.00306459 -0.214062 0.00125 192
1 0.0691939 0.0303369 0.00125777 0.0222827 0.0390316 -0.113153 0.00125 193
1 0.409207 0.134989 0.00142995 0.0206158 -0.00729318 -0.267771 0.00125 194
1 0.00873094 0.147028 0.00126664 -0.00580364 0.000541845 -0.242204 0.00125 195
1 0.0582178 0.0548079 0.00156865 0.00417219 0.0104869 0.135523 0.00125 196
1 0.416868 0.11118 0.00132649 0.0103735 0.0080059 -0.248261 0.00125 197
1 0.103148 0.205922 0.00228937 -0.0282755 -0.0045929 -0.134784 0.00125 198
1 0.280499 0.0163616 0.00135169 0.0105652 0.00788031 -0.221558 0.00125 199
1 0.0247831 0.0153811 0.00134333 -0.0282718 0.0444026 0.222728 0.00125 200
1 0.394036 0.0405894 0.00178618 -0.00593685 0.0243957 0.106939 0.00125 201
1 0.27664 0.0789629 0.00179701 0.0031459 -0.0127291 -0.245823 0.00125 202
1 0.178655 0.408948 0.00138373 -0.000437895 -0.000291181 -0.229468 0.00125 203
1 0.244088 0.272126 0.00127995 -0.0169067 -0.0222307 0.185355 0.00125 204
1 0.0857412 0.155066 0.00163533 -0.00588521 0.00822722 0.0793521 0.00125 205
1 0.246736 0.249306 0.00160869 0.0143206 -0.0139207 -0.282443 0.00125 206
1 0.368372 0.107594 0.00143275 0.0174558 -0.00743119 -0.105204 0.00125 207
1 0.145614 0.189469 0.00126595 -0.00112441 0.0113764 0.0133524 0.00125 208
1 0.436767 0.199609 0.00140667 -0.00194013 0.00861669 -0.252904 0.00125 209
1 0.249925 0.109065 0.00234826 0.00493092 0.00623245 -0.118938 0.00125 210
1 0.356467 0.0477003 0.00136802 -0.000830788 -0.00463972 0.127013 0.00125 211
1 0.324592 0.232412 0.00171306 0.0121942 -0.00940782 -0.0959767 0.00125 212
1 0.282511 0.33844 0.00136263 -0.00551343 -0.0165381 0.161671 0.00125 213
1 0.405484 0.295121 0.00149453 -0.00251931 0.00100076 -0.0685796 0.00125 214
1 0.25434 0.0882356 0.00150838 0.0241694 0.0418147 -0.198972 0.00125 215
1 0.156946 0.0609498 0.00214298 -0.000464371 0.010189 -0.197783 0.00125 216
1 0.31687 0.231805 0.00136474 0.00479247 0.0202682 0.185617 0.00125 217
1 0.0766736 0.220001 0.0016223 -0.0179675 0.0153267 -0.285427 0.00125 218
1 0.336351 0.247465 0.00137046 0.0104193 -0.00908488 0.155451 0.00125 219
1 0.235474 0.0525056 0.00236415 0.0131915 -0.000925848 -0.0443806 0.00125 220
1 0.182956 0.409722 0.00144287 -0.00157905 -0.0304293 0.222479 0.00125 221
1 0.202099 0.358759 0.00139492 -0.0335008 0.00936474 0.153789 0.00125 222
1 0.0791075 0.432729 0.00160603 -0.0200754 -0.00216722 -0.171854 0.00125 223
1 0.312617 0.188689 0.00124089 0.00640828 0.00536824 -0.211109 0.00125 224
1 0.267554 0.334985 0.00167371 0.00469115 0.0135528 0.0819518 0.00125 225
1 0.205976 0.0997141 0.00201233 -0.0134596 0.0100316 -0.204664 0.00125 226
1 0.0524214 0.356117 0.00144773 -0.00777702 -0.0159058 0.167677 0.00125 227
1 0.200682 0.419451 0.00129569 -0.0128992 -0.0378698 -0.232712 0.00125 228
1 0.183025 0.145844 0.00136135 0.00471035 0.000471521 0.0271657 0.00125 229
1 0.127434 0.319399 0.00126238 0.0371128 -0.000977239 -0.231248 0.00125 230
1 0.41135 0.0842861 0.0015114 -0.0169299 -0.00469515 0.111499 0.00125 231
1 0.373062 0.326912 0.00126288 0.0115568 -0.0320546 0.193166 0.00125 232
1 0.41262 0.384623 0.00127615 0.0111852 -0.0144389 -0.229007 0.00125 233
1 0.261863 0.00705069 0.00126408 -0.0260869 -0.0144662 0.251908 0.00125 234
1 0.0439613 0.00326278 0.00179016 -0.00551131 0.000499443 -0.0864683 0.00125 235
1 0.0951352 0.10222 0.00142184 -0.00799796 -0.0132307 -0.05182 0.00125 236
1 0.379157 0.388856 0.00159098 -0.00256257 -0.0451354 -0.229562 0.00125 237
1 0.0812131 0.246294 0.0013843 0.0225624 0.0136781 0.180271 0.00125 238
1 0.408772 0.277543 0.00145174 0.00654409 -0.010445 -0.248577 0.00125 239
1 0.306184 0.121001 0.00151021 -0.00123032 0.0240622 0.111865 0.00125 240
1 0.156762 0.415196 0.00147091 -0.00612468 -0.00361768 -0.293777 0.00125 241
1 0.0295559 0.428838 0.00126094 -0.000598699 -0.0102019 -0.19256 0.00125 242
1 0.140769 0.00639759 0.00133641 0.00704355 0.00535782 -0.241074 0.00125 243
1 0.387064 0.362388 0.0014334 0.0217243 -0.00128411 -0.237357 0.00125 244
1 0.429353 0.353919 0.00148786 0.00778036 -0.0111845 0.211852 0.00125 245
1 0.12702 0.0580788 0.0016159 -0.00820376 -0.00953711 -0.0913138 0.00125 246
1 0.294061 0.445929 0.00154836 0.0191001 -0.0121655 -0.18868 0.00125 247
1 0.172764 0.239656 0.00173137 0.0166751 -0.0108649 0.107458 0.00125 248
1 0.237403 0.314377 0.0012458 -0.0173631 -0.018903 -0.252109 0.00125 249
1 0.18632 0.264024 0.0015728 0.00953261 -0.0125925 0.0515338 0.00125 250
1 0.331175 0.437566 0.0016247 -0.00295902 -0.00348572 -0.052446 0.00125 251
1 0.0501027 0.319993 0.00148769 0.0035423 -0.0181562 0.120122 0.00125 252
1 0.256974 0.169157 0.00219236 -0.0274811 0.00965978 -0.154758 0.00125 253
1 0.240466 0.0965627 0.00149339 -0.00505049 -0.0016439 -0.294053 0.00125 254
1 0.356833 0.0425699 0.00176088 -0.00102957 0.00368941 0.110183 0.00125 255
1 0.0669344 0.0524586 0.00159728 -0.00815813 0.0244594 0.112265 0.00125 256
1 0.36525 0.135764 0.00142738 0.00222483 -0.0158035 -0.235056 0.00125 257
1 0.171845 0.0800487 0.00215617 0.00280943 -0.00622774 -0.0557826 0.00125 258
1 0.384944 0.435303 0.00158063 0.00469006 0.00230197 0.136043 0.00125 259
1 0.290806 0.42741 0.0016499 -0.0134313 0.012632 0.156959 0.00125 260
1 0.222291 0.318995 0.00156236 -0.0109949 -0.0044005 -0.235531 0.00125 261
1 0.434648 0.361914 0.00131697 -0.00802462 -0.00732541 -0.238917 0.00125 262
1 0.237562 0.387457 0.0017255 -0.00722821 0.00794229 0.110352 0.00125 263
1 0.220987 0.437086 0.00185589 -0.0169779 -0.00953981 -0.0362812 0.00125 264
1 0.403781 0.405913 0.00150767 0.0105343 0.0114946 0.0684711 0.00125 265
1 0.0535945 0.34762 0.00158368 -0.00603032 0.00119582 0.171965 0.00125 266
1 0.341534 0.348696 0.00152682 -0.0126045 -0.0135259 -0.23226 0.00125 267
1 0.218488 0.316132 0.00229621 -0.00280861 -0.00179711 -0.0465851 0.00125 268
1 0.337276 0.22898 0.00129118 0.0132361 0.0174967 0.194035 0.00125 269
1 0.351815 0.212525 0.00153497 0.00772703 -0.00347282 -0.189424 0.00125 270
1 0.10327 0.412355 0.00158448 -0.000197973 0.00528844 -0.183332 0.00125 271
1 0.214462 0.00683614 0.00137979 -0.00458144 -0.0259977 0.163588 0.00125 272
1 0.349293 0.1283 0.00126173 0.00623757 -0.00965883 -0.230375 0.00125 273
1 0.374637 0.364219 0.00148632 -0.00285867 -0.00261698 -0.243253 0.00125 274
1 0.409216 0.077294 0.00192845 -0.00738467 -0.0100598 -0.20234 0.00125 275
1 0.19298 0.432507 0.00249261 0.00911273 0.0175954 -0.0351966 0.00125 276
1 0.0866981 0.279613 0.00169344 0.0109846 0.00948859 -0.227291 0.00125 277
1 0.0717517 0.312892 0.00152779 -0.000780995 -0.00539923 0.107355 0.00125 278
1 0.0170445 0.290025 0.00141314 -0.0229691 -0.0123831 -0.246145 0.00125 279
1 0.189975 0.130297 0.00244016 -0.000242361 -0.00132858 -0.0766116 0.00125 280
1 0.0885595 0.35578 0.00218719 0.0533165 -0.00106032 -0.158527 0.00125 281
1 0.408515 0.375354 0.00158767 -0.0115019 -0.0120807 -0.182447 0.00125 282
1 0.103007 0.0930199 0.00192778 -0.00796113 0.0124215 -0.239089 0.00125 283
1 0.216589 0.313787 0.0024164 0.020988 -0.000397434 0.0314391 0.00125 284
1 0.445577 0.27493 0.0012906 -0.000601868 0.000949132 0.273395 0.00125 285
1 0.265891 0.220019 0.001599 0.0146103 0.00430824 -0.237607 0.00125 286
1 0.174647 0.440508 0.00129341 -0.0158074 0.0158001 -0.231493 0.00125 287
1 0.0501098 0.232317 0.00125283 -0.00108592 -0.00259795 0.256501 0.00125 288
1 0.0921049 0.382912 0.00206643 0.0104051 -0.00559417 -0.0488278 0.00125 289
1 0.252943 0.174908 0.0012597 -0.00165756 -0.00140513 -0.229432 0.00125 290
1 0.0586677 0.298216 0.00133599 0.00517965 -0.0088301 0.173206 0.00125 291
1 0.388753 0.309708 0.00133045 -0.00901941 -0.0292734 -0.193041 0.00125 292
1 0.28302 0.0984848 0.00146026 -0.0158935 -0.00723816 0.125755 0.00125 293
1 0.310656 0.102093 0.00150773 -0.0171501 0.0076645 -0.236874 0.00125 294
1 0.0179435 0.418644 0.00217804 -0.00516763 -0.00123596 -0.159791 0.00125 295
1 0.0537689 0.161697 0.00162177 0.00872654 -0.00358773 0.0514531 0.00125 296
1 0.0975562 0.314068 0.00157632 -0.00527558 -0.0139086 -0.288603 0.00125 297
1 0.00327897 0.158664 0.00163625 0.00953033 -0.00884624 -0.231786 0.00125 298
1 0.281032 0.227152 0.00139808 -0.0164007 0.00845013 -0.189035 0.00125 299
1 0.366771 0.269278 0.00194934 -0.00419867 0.00392774 -0.0681039 0.00125 300
1 0.140852 0.0167665 0.00158405 0.0271972 -0.0126556 -0.0678593 0.00125 301
1 0.0394878 0.173071 0.00144772 -0.00148097 -0.0170314 -0.232778 0.00125 302
1 0.088672 0.200642 0.00161803 0.0425512 -0.00449732 0.126475 0.00125 303
1 0.383637 0.212962 0.00138768 -0.00754382 -0.000765618 0.180491 0.00125 304
1 0.249717 0.247851 0.00124336 -0.00471245 0.00726762 0.194723 0.00125 305
1 0.365064 0.445265 0.00147391 0.00529774 0.00367186 -0.229905 0.00125 306
1 0.222635 0.163932 0.00135161 -0.0083314 -0.0149341 -0.236583 0.00125 307
1 0.241169 0.0749838 0.00149427 -0.0106633 0.0108875 -0.191169 0.00125 308
1 0.380029 0.0786655 0.00130436 -0.00614742 -0.00568351 -0.233305 0.00125 309
1 0.247972 0.396407 0.00150738 0.0120982 -0.0121175 0.135821 0.00125 310
1 0.367673 0.375347 0.00236228 -0.0102719 -0.00409026 -0.13766 0.00125 311
1 0.0292659 0.142959 0.00124322 0.00180589 0.0219347 0.16772 0.00125 312
1 0.385246 0.185571 0.00141394 -0.00772822 0.00628473 0.14389 0.00125 313
1 0.0675544 0.230569 0.00238586 -0.00942284 -0.0241755 -0.0999981 0.00125 314
1 0.242624 0.256778 0.00200752 -0.0481401 0.0321895 -0.0515381 0.00125 315
1 0.393294 0.216506 0.00156593 -0.00238232 -0.000749713 -0.0860095 0.00125 316
1 0.24127 0.434025 0.00249192 -0.00116487 -0.0055085 -0.0752864 0.00125 317
1 0.144596 0.268677 0.00128826 -0.0142133 -0.00739338 0.206449 0.00125 318
1 0.440469 0.169992 0.00145957 0.00955382 -0.00243855 0.115783 0.00125 319
1 0.22921 0.234297 0.0019223 0.0158103 0.0244848 -0.203427 0.00125 320
1 0.443195 0.193942 0.00125912 -0.0142532 0.00562076 -0.230407 0.00125 321
1 0.264413 0.00156284 0.00137851 0.00154228 -0.034131 -0.225005 0.00125 322
1 0.430847 0.2485 0.00177346 -0.00574077 0.0187822 0.141113 0.00125 323
1 0.417244 0.0395215 0.00135757 -0.0197277 0.0184024 -0.221104 0.00125 324
1 0.363777 0.112337 0.00163475 0.000431496 -0.00585215 -0.0923091 0.00125 325
1 0.236876 0.304148 0.00141907 0.0148299 0.00997476 0.218542 0.00125 326
1 0.208683 0.268424 0.00159727 -0.0184933 -0.0114827 -0.229137 0.00125 327
1 0.2091 0.135955 0.00143734 0.00803228 0.0127127 0.0968332 0.00125 328
1 0.395155 0.0965857 0.00137989 -0.00269499 -0.0121232 -0.238486 0.00125 329
1 0.0428239 0.432321 0.00160872 0.0363026 -0.0129057 -0.179914 0.00125 330
1 0.234091 0.375032 0.00230034 0.0278915 0.112579 -0.135878 0.00125 331
1 0.0661513 0.0633302 0.00203891 0.053691 0.0309157 -0.0799377 0.00125 332
1 0.0685847 0.267334 0.00151362 -0.00365429 0.00768438 0.108168 0.00125 333
1 0.276212 0.0824578 0.00127437 -0.00463097 0.00978528 -0.306102 0.00125 334
1 9.83052e-05 0.140434 0.00129963 -0.0108925 -0.00833126 -0.206329 0.00125 335
1 0.303317 0.198287 0.00141548 0.00285558 -0.0155225 0.248436 0.00125 336
1 0.199235 0.384925 0.00167539 -0.00761857 -0.00876678 -0.273238 0.00125 337
1 0.435134 0.214415 0.00127244 -0.00178873 0.00126979 -0.254647 0.00125 338
1 0.438529 0.201847 0.00125904 0.00339182 0.00922837 -0.227444 0.00125 339
1 0.371402 0.425652 0.00139373 0.00909857 -0.00969105 -0.241181 0.00125 340
1 0.0106153 0.0605341 0.00127134 0.00246078 0.00581298 -0.217863 0.00125 341
1 0.15606 0.212012 0.00156838 0.00814187 0.000870848 -0.18761 0.00125 342
1 0.394463 0.263341 0.00126884 -0.022162 0.00904588 0.187908 0.00125 343
1 0.428551 0.419927 0.00160648 0.0310464 0.00199947 -0.235836 0.00125 344
1 0.111267 0.255383 0.00169198 0.00687037 0.0314515 0.0770461 0.00125 345
1 0.33228 0.371029 0.00224949 0.0139691 0.0205557 -0.0436807 0.00125 346
1 0.399236 0.321773 0.00152605 -0.00961957 0.014208 0.104775 0.00125 347
1 0.337712 0.399231 0.00129024 0.0074364 0.0133181 -0.237665 0.00125 348
1 0.145179 0.309151 0.00236804 -0.00301281 -0.0165341 -0.0475592 0.00125 349
1 0.0718375 0.444997 0.00143172 0.0186125 0.0147873 -0.197756 0.00125 350
1 0.415535 0.18524 0.00147989 0.0227318 -0.0246854 -0.240325 0.00125 351
1 0.380777 0.285569 0.00161492 0.00348062 -0.00763815 -0.233219 0.00125 352
1 0.189656 0.370042 0.00141841 0.00809302 0.0141387 0.122843 0.00125 353
1 0.0235839 0.322157 0.00137584 -0.024449 0.0139319 0.182676 0.00125 354
1 0.172213 0.419868 0.00126372 -0.00669197 -0.013769 0.254805 0.00125 355
1 0.321663 0.434428 0.00242192 -0.000795906 -0.0066337 -0.0856901 0.00125 356
1 0.167094 0.212671 0.00141314 -0.0161128 0.00295108 0.145661 0.00125 357
1 0.287336 0.441783 0.00138361 0.0298057 -0.00439482 -0.237798 0.00125 358
1 0.0801395 0.387831 0.00143275 0.00184457 -0.0296965 -0.229513 0.00125 359
1 0.134301 0.25678 0.00251747 -0.0139379 -0.0101809 -0.0506173 0.00125 360
1 0.223843 0.390595 0.00160569 0.00204652 0.0358807 0.0816566 0.00125 361
1 0.0881754 0.394947 0.00138811 -0.00380759 0.000520591 0.221957 0.00125 362
1 0.0144107 0.0458386 0.00143629 0.0187773 0.0231029 -0.227493 0.00125 363
1 0.330644 0.339796 0.00204849 0.00264775 -0.0202059 -0.215451 0.00125 364
1 0.111539 0.199509 0.00132292 0.00912832 -0.00892407 -0.229878 0.00125 365
1 0.399289 0.00210806 0.00142417 0.00473275 0.00735019 -0.255005 0.00125 366
1 0.127363 0.0150952 0.00178265 -0.0090718 -0.00167022 0.154956 0.00125 367
1 0.105047 0.01418 0.00125557 -0.00183133 0.00930011 -0.197525 0.00125 368
1 0.343969 0.254359 0.0013203 -0.0125529 -0.0124819 0.176511 0.00125 369
1 0.0260252 0.126962 0.00216692 -0.00978242 -0.00786903 -0.0531669 0.00125 370
1 0.230112 0.0821686 0.00154732 -0.0269666 0.0170502 -0.232474 0.00125 371
1 0.410509 0.105173 0.00231032 0.0113889 0.0127865 -0.12393 0.00125 372
1 0.42843 0.246933 0.00142102 0.00055027 -0.00349009 -0.239862 0.00125 373
1 0.109599 0.21901 0.00127473 0.00703212 0.00200537 -0.24798 0.00125 374
1 0.131006 0.28455 0.00132977 0.0105084 -0.00677268 0.156423 0.00125 375
1 0.061362 0.0930636 0.00152249 0.00650454 0.00237219 0.112855 0.00125 376
1 0.0466076 0.424198 0.00170928 3.80833e-05 -0.0154754 -0.0836832 0.00125 377
1 0.414785 0.0107303 0.00153573 0.0195386 0.00636248 -0.18941 0.00125 378
1 0.111963 0.207179 0.00128547 0.0107837 0.0142957 -0.235114 0.00125 379
1 0.210823 0.301139 0.00127134 -0.00817329 0.00788342 -0.0139095 0.00125 380
1 0.028288 0.31433 0.00151446 0.00650555 -0.0187476 0.215882 0.00125 381
1 0.213499 0.304327 0.00135735 0.00211436 0.0228701 -0.237325 0.00125 382
1 0.187581 0.142526 0.00196106 0.038328 0.0434241 -0.0704299 0.00125 383
1 0.178792 0.0401358 0.00159925 -0.0232121 -0.0249906 0.122164 0.00125 384
1 0.037034 0.117086 0.00228759 0.0253084 -0.0108596 -0.0465468 0.00125 385
1 0.36068 0.105128 0.00143234 -0.00440677 0.00190708 0.244043 0.00125 386
1 0.322009 0.252695 0.00127535 0.0218303 0.0174982 -0.193871 0.00125 387
1 0.022084 0.388636 0.0015721 0.030563 0.00199783 -0.0853404 0.00125 388
1 0.284252 0.17598 0.00225258 0.00135086 -0.00566099 -0.0496323 0.00125 389
1 0.395566 0.219478 0.0014087 -0.0168495 0.00265196 0.16322 0.00125 390
1 0.162335 0.311076 0.0014955 0.044733 -0.0472392 0.1126 0.00125 391
1 0.113876 0.10547 0.0019461 -0.0261701 -0.0889222 -0.137301 0.00125 392
1 0.316618 0.100767 0.00147082 0.000393753 -0.00805969 0.207232 0.00125 393
1 0.0716219 0.252883 0.00145664 -0.0437868 0.00326432 0.0861907 0.00125 394
1 0.207882 0.401618 0.00130846 0.00650648 0.00462235 -0.230371 0.00125 395
1 0.118271 0.278003 0.00132078 0.010218 -0.00202584 0.15218 0.00125 396
1 0.199658 0.225925 0.00155672 -0.00962675 0.00115209 0.0640011 0.00125 397
1 0.105944 0.268923 0.00139037 0.00204017 -0.0029384 -0.266492 0.00125 398