ITEM: TIMESTEP
1000000
ITEM: NUMBER OF ATOMS
10000
ITEM: BOX BOUNDS pp pp ff
0.0000000000000000e+00 3.0587250500000002e-01
0.0000000000000000e+00 3.0587250500000002e-01
-1.2500000000000001e-02 1.2500000000000001e-02
ITEM: ATOMS type x y z vx vy vz radius id
1 0.0579497 0.0144782 0.00221085 0.00919237 0.0294282 -0.0177294 0.00125 1
1 0.231128 0.103381 0.00138505 0.028516 0.0631348 -0.197661 0.00125 2
1 0.0589395 0.241142 0.00201105 0.00845658 0.0105069 -0.0703467 0.00125 3
1 0.239609 0.160666 0.00134467 -0.00894672 -0.00136147 -0.211972 0.00125 4
1 0.211392 0.178723 0.00234859 -0.0473305 0.0509568 -0.0415029 0.00125 5
1 0.122705 0.205938 0.00151968 0.0302677 -0.000156662 -0.117797 0.00125 6
1 0.166566 0.26187 0.00123977 -0.0451475 0.00134911 -0.209549 0.00125 7
1 0.142868 0.225783 0.00187237 0.04402 0.0169957 -0.0682959 0.00125 8
1 0.0201589 0.256215 0.0013717 -0.0444888 0.011574 -0.216877 0.00125 9
1 0.202986 0.177487 0.00135736 0.00463428 -0.0100391 -0.188416 0.00125 10
1 0.243424 0.188152 0.00134933 0.0188819 0.0655726 -0.264189 0.00125 11
1 0.140991 0.160749 0.00153654 -0.0179467 0.011788 0.234108 0.00125 12
1 0.100297 0.0190333 0.00195249 -0.0349982 0.0407888 -0.0286845 0.00125 13
1 0.185731 0.0051833 0.00215148 -0.0141926 -0.0240085 -0.152493 0.00125 14
1 0.182285 0.19669 0.00245781 -0.0459093 0.023613 -0.00378767 0.00125 15
1 0.178236 0.184658 0.00144431 0.00584231 0.00148366 0.22945 0.00125 16
1 0.0904177 0.208123 0.00139562 0.00926775 0.00634509 -0.270458 0.00125 17
1 0.0124168 0.0496169 0.00214476 0.0615656 0.00670627 -0.0762149 0.00125 18
1 0.155386 0.0982161 0.00142607 -0.00613785 0.0227431 0.161304 0.00125 19
1 0.26863 0.0856494 0.00130323 0.00978424 0.0493472 0.266075 0.00125 20
1 0.286161 0.259202 0.0015829 0.00351795 0.0189786 0.147442 0.00125 21
1 0.147134 0.285779 0.00124773 -0.0240592 -0.0104945 0.0587353 0.00125 22
1 0.293153 0.0852256 0.00123844 0.0523499 -0.0170498 -0.230233 0.00125 23
1 0.17027 0.266614 0.00125497 0.0291899 -0.00305078 0.242301 0.00125 24
1 0.0184129 0.178965 0.00134434 -0.0231083 0.0530468 -0.242512 0.00125 25
1 0.286064 0.161564 0.00219412 0.0660624 -0.0122333 -0.0701721 0.00125 26
1 0.159229 0.234903 0.00124814 -0.00298143 -0.00622708 -0.232533 0.00125 27
1 0.208541 0.145924 0.00129626 -0.0160459 0.00745099 -0.255371 0.00125 28
1 0.00736635 0.172584 0.00178604 0.124933 0.0201168 -0.00925825 0.00125 29
1 0.0720115 0.261469 0.00149203 0.0330757 -0.047143 0.113396 0.00125 30
1 0.0655353 0.0563153 0.00229034 -0.00398383 -0.00408187 -0.135201 0.00125 31
1 0.00611713 0.183757 0.00196637 -0.00653665 0.0154733 -0.157878 0.00125 32
1 0.16546 0.088346 0.00227084 0.0142958 -0.0264812 -0.0452253 0.00125 33
1 0.218652 0.29477 0.00139313 0.0168596 0.00341145 -0.228515 0.00125 34
1 0.232856 0.206315 0.00155871 -0.0609375 -0.0137152 0.0727264 0.00125 35
1 0.0271391 0.264044 0.00235587 0.0310319 0.0908657 -0.111142 0.00125 36
1 0.272185 0.0257622 0.00149835 0.0893243 -0.0147442 -0.148284 0.00125 37
1 0.00323773 0.193541 0.00184393 0.0157705 -0.0209299 -0.0880725 0.00125 38
1 0.265499 0.161093 0.00143219 0.0386596 -0.0318797 -0.155637 0.00125 39
1 0.231533 0.0288997 0.00170834 -0.019735 -0.0102428 -0.170056 0.00125 40
1 0.230138 0.204873 0.00148922 -0.0243166 0.0359097 0.135435 0.00125 41
1 0.187726 0.225001 0.00234695 -0.0119748 -0.00366772 -0.11858 0.00125 42
1 0.130551 0.214979 0.00155303 -0.0363304 -0.0332225 -0.111932 0.00125 43
1 0.152895 0.176159 0.00126187 -0.0185707 -0.00467925 0.0713219 0.00125 44
1 0.0103768 0.268225 0.0014835 -0.0426944 -0.00445621 -0.246533 0.00125 45
1 0.24262 0.0746617 0.00156857 0.0295801 0.0453138 0.0993737 0.00125 46
1 0.185413 0.282383 0.00141752 -0.0362407 0.033566 -0.271529 0.00125 47
1 0.17534 0.125965 0.00207838 -0.00469288 -0.0452138 -0.199946 0.00125 48
1 0.223045 0.104826 0.00176117 -0.0451883 -0.0117817 -0.174086 0.00125 49
1 0.218277 0.210165 0.00125085 -0.0279146 -0.0522142 0.126773 0.00125 50
1 0.226664 0.0167029 0.00155309 -0.0263241 0.0123581 0.174464 0.00125 51
1 0.055109 0.0182906 0.00164064 -0.104356 -0.0321762 -0.201687 0.00125 52
1 0.214725 0.268076 0.00129196 -0.0239967 -0.00369021 0.255318 0.00125 53
1 0.158012 0.226752 0.00186966 0.00981047 0.0419198 -0.18602 0.00125 54
1 0.213683 0.291844 0.00169055 0.00633346 0.02227 0.150668 0.00125 55
1 0.132869 0.0276935 0.00132239 0.0156567 0.0122887 -0.0611263 0.00125 56
1 0.263876 0.0611737 0.0015731 -0.0283828 -0.0185061 0.169127 0.00125 57
1 0.115645 0.0905293 0.00207937 0.0476633 -0.0573509 -0.0163948 0.00125 58
1 0.140311 0.0724763 0.00174507 0.00966225 0.00180719 0.136324 0.00125 59
1 0.185774 0.257854 0.00125856 0.0334608 -0.0242799 0.19954 0.00125 60
1 0.116582 0.206773 0.00131813 -0.0342661 0.0385276 -0.275154 0.00125 61
1 0.0163436 0.186885 0.00174348 -0.0407244 -0.00466615 -0.0394885 0.00125 62
1 0.169863 0.00605372 0.00135486 0.000170572 -0.00895727 -0.242124 0.00125 63
1 0.0618398 0.226655 0.0013327 -0.0514296 -0.0225782 -0.16065 0.00125 64
1 0.0480353 0.0175633 0.00167614 0.0213282 0.0691924 -0.142715 0.00125 65
1 0.114144 0.0339933 0.00152438 -0.0503131 -0.0427392 -0.183377 0.00125 66
1 0.303885 0.24408 0.00228823 0.0747758 0.0278707 -0.136552 0.00125 67
1 0.233694 0.283954 0.0013703 -0.0338407 0.0126999 -0.204925 0.00125 68
1 0.253846 0.282957 0.00149364 0.0253699 0.0343732 -0.078586 0.00125 69
1 0.247025 0.00230137 0.00172791 -0.0632989 -0.0629872 -0.210075 0.00125 70
1 0.0706272 0.114601 0.00167574 0.00589245 -0.0050265 -0.201593 0.00125 71
1 0.0539894 0.000445676 0.00150886 0.0131316 0.00787803 0.147269 0.00125 72
1 0.226599 0.0721116 0.00135155 0.0346129 0.00442756 0.0289468 0.00125 73
1 0.138637 0.221518 0.00123046 -0.012897 0.0120067 -0.0308699 0.00125 74
1 0.140201 0.15762 0.00141859 0.0508919 -0.0145537 -0.145484 0.00125 75
1 0.0818343 0.16137 0.00175124 0.00120827 0.0517359 -0.108045 0.00125 76
1 0.30572 0.010548 0.00145063 0.0171436 -0.01476 -0.303354 0.00125 77
1 0.206899 0.0271281 0.00171046 0.0198905 -0.0225954 -0.0519003 0.00125 78
1 0.282317 0.0941573 0.00155309 -0.0335725 0.0346444 0.102466 0.00125 79
1 0.16827 0.148934 0.00134194 0.0139887 0.110237 -0.286285 0.00125 80
1 0.0407099 0.0448233 0.00134518 -0.0384955 -0.00206719 -0.255169 0.00125 81
1 0.253215 0.0952424 0.0014922 -0.0425955 0.0272173 -0.221132 0.00125 82
1 0.00410452 0.182026 0.00197464 -0.030001 0.012162 -0.0895041 0.00125 83
1 0.0228104 0.0950181 0.00156811 0.00493723 0.0746207 0.170177 0.00125 84
1 0.22927 0.105417 0.00130596 0.00485835 0.0133589 -0.24137 0.00125 85
1 0.221594 0.0949159 0.00128462 -0.0132698 -0.0263272 -0.13192 0.00125 86
1 0.250744 0.212299 0.00199299 -0.0427717 -0.00227681 -0.0677679 0.00125 87
1 0.25356 0.217907 0.00133271 -0.0109275 0.0281584 0.0707417 0.00125 88
1 0.28517 0.0615047 0.00145087 -0.00555407 0.0350386 0.134974 0.00125 89
1 0.208265 0.0214143 0.00152006 -0.0146416 0.0180101 0.139448 0.00125 90
1 0.181716 0.144954 0.00174121 -0.0225474 0.0614185 -0.158042 0.00125 91
1 0.0517485 0.17106 0.00135924 -0.0321018 0.0372621 -0.259792 0.00125 92
1 0.276443 0.214388 0.00164469 0.0268102 -0.0481127 -0.0929414 0.00125 93
1 0.0944844 0.250993 0.00148355 0.079949 -0.0970285 -0.148744 0.00125 94
1 0.158427 0.202148 0.00146701 -0.0102167 0.00301037 -0.0675355 0.00125 95
1 0.0304778 0.299065 0.00135873 0.0758132 -0.115956 0.0859849 0.00125 96
1 0.00386058 0.161991 0.00130242 -0.0691786 0.0440133 0.230545 0.00125 97
1 0.214116 0.235768 0.00123078 0.00783411 -0.00908325 -0.0632094 0.00125 98
1 0.0244779 0.0684653 0.00122869 -0.0319117 0.00622655 -0.0314838 0.00125 99
1 0.14431 0.0307241 0.00196958 0.00980138 0.0030694 -0.104958 0.00125 100
1 0.217948 0.217089 0.00162083 -0.0178631 0.0172454 -0.250922 0.00125 101
1 0.205431 0.0760576 0.0016629 0.0223655 -0.0261236 0.0951808 0.00125 102
1 0.0425767 0.294084 0.0019533 -0.0613298 -0.00578704 -0.143475 0.00125 103
1 0.197705 0.0958141 0.0015336 -0.0356864 0.0709757 -0.267983 0.00125 104
1 0.111566 0.252374 0.00129376 0.0285309 -0.0317934 -0.268904 0.00125 105
1 0.113933 0.193308 0.00251858 0.00947975 -0.00309397 -0.0502285 0.00125 106
1 0.175139 0.168319 0.00251413 -0.00666431 0.000166431 -0.0491484 0.00125 107
1 0.257452 0.220744 0.00149917 0.000701077 0.00740628 0.180242 0.00125 108
1 0.0836907 0.218841 0.00151864 0.0464747 -0.0262229 -0.200655 0.00125 109
1 0.136386 0.198734 0.00135619 -0.0238409 0.038306 -0.240819 0.00125 110
1 0.281486 0.234301 0.00135114 -0.0174272 -0.0779492 0.121886 0.00125 111
1 0.0465695 0.20729 0.00140054 -0.00935653 0.0392849 0.193089 0.00125 112
1 0.06914 0.0606185 0.00163167 0.00705599 0.00269999 0.0944436 0.00125 113
1 0.134878 0.305744 0.00133365 0.0125367 0.00341432 0.256406 0.00125 114
1 0.0773863 0.290108 0.00135647 -0.044227 0.0406175 -0.196731 0.00125 115
1 0.274109 0.092463 0.00163326 0.00724335 -0.0206531 0.13393 0.00125 116
1 0.256356 0.0852284 0.00136632 0.0720824 0.0380241 -0.176178 0.00125 117
1 0.304617 0.0311486 0.00201726 -0.0411396 -0.00557302 -0.182434 0.00125 118
1 0.202573 0.104268 0.0012707 -0.0293723 -0.0457064 0.206138 0.00125 119
1 0.038857 0.0624174 0.0022934 0.107614 0.0711642 -0.0776403 0.00125 120
1 0.178053 0.0697671 0.00153659 -0.0290561 0.0327782 -0.131208 0.00125 121
1 0.073502 0.086081 0.00160882 -0.0235829 -0.015327 -0.277396 0.00125 122
1 0.17442 0.112869 0.00153812 0.0897107 0.0149511 0.0749737 0.00125 123
1 0.2692 0.0177862 0.00140038 -0.0203693 0.0270301 0.14727 0.00125 124
1 0.00723736 0.29911 0.00125059 0.0451072 -0.0509857 0.0656418 0.00125 125
1 0.225369 0.235501 0.00252032 -0.133523 0.0662116 0.0173797 0.00125 126
1 0.145443 0.235434 0.00122968 -0.0146609 0.00507043 -0.0631786 0.00125 127
1 0.0997144 0.227087 0.00234222 0.00169645 -0.0366215 -0.116121 0.00125 128
1 0.229263 0.2473 0.00173741 0.0110307 0.0107644 -0.142603 0.00125 129
1 0.141955 0.144783 0.00201019 0.0279994 0.00314863 -0.168195 0.00125 130
1 0.20018 0.303768 0.00173335 -0.00300487 0.0330722 -0.213922 0.00125 131
1 0.264747 0.14253 0.00131403 -0.00920239 0.0482107 -0.235661 0.00125 132
1 0.0106583 0.0151401 0.00125134 -0.0118365 -0.0210583 -0.235424 0.00125 133
1 0.247595 0.109032 0.00206403 -0.0433084 0.028158 -0.0184856 0.00125 134
1 0.0326831 0.116736 0.00148218 -0.0566054 -0.00475952 0.205106 0.00125 135
1 0.304114 0.00384084 0.00250665 0.0121049 0.00275528 -0.0362622 0.00125 136
1 0.129237 0.0522378 0.00139935 -0.072519 -0.0349074 0.109131 0.00125 137
1 0.213068 0.0205401 0.00130327 0.0117193 0.00384966 -0.282532 0.00125 138
1 0.191038 0.0866912 0.00159801 0.0098478 -0.000990578 0.0923813 0.00125 139
1 0.217178 0.0609377 0.00148276 0.00425157 0.0135086 -0.21241 0.00125 140
1 0.0596842 0.055517 0.00126968 -0.0153889 0.00709797 -0.222942 0.00125 141
1 0.115286 0.041946 0.00157039 -0.0161531 -0.00627865 0.0853361 0.00125 142
1 0.188961 0.173676 0.00234578 0.0268498 -0.036833 -0.0545697 0.00125 143
1 0.16813 0.00833186 0.00128762 0.0180869 -0.0201424 0.189815 0.00125 144
1 0.0254971 0.215005 0.00123397 0.0144448 -0.0588816 0.065877 0.00125 145
1 0.0071357 0.255364 0.00138363 0.0138543 0.00451836 -0.196438 0.00125 146
1 0.169738 0.0536784 0.00185221 -0.00193097 0.0143554 -0.092046 0.00125 147
1 0.177955 0.10728 0.00181197 -0.0589513 -0.0760371 -0.174396 0.00125 148
1 0.100124 0.0581073 0.00122602 -0.00415199 -0.0019673 0.0760679 0.00125 149
1 0.0790686 0.183139 0.0024291 -0.0708588 -0.0646802 0.0181584 0.00125 150
1 0.0817553 0.0576446 0.00138012 -0.0108475 -0.00920711 -0.238093 0.00125 151
1 0.0620357 0.148911 0.00154321 0.00498836 0.0340573 0.13672 0.00125 152
1 0.196518 0.265164 0.00166401 -0.0285634 0.0270432 -0.155471 0.00125 153
1 0.170845 0.080143 0.00168093 -0.000867611 -0.00936846 0.12799 0.00125 154
1 0.0535367 0.0254799 0.00157612 0.0191426 0.0460456 0.145317 0.00125 155
1 0.0785825 0.212469 0.00128342 0.00666248 -0.0254541 0.244842 0.00125 156
1 0.166557 0.137718 0.00128003 -0.0101395 0.0033078 0.237109 0.00125 157
1 0.038767 0.171337 0.00132192 -0.0203213 -0.0262246 -0.0411712 0.00125 158
1 0.265333 0.181399 0.00124416 -0.0263993 -0.0131199 -0.218247 0.00125 159
1 0.298772 0.0867471 0.00165828 -0.028422 0.0778455 -0.176286 0.00125 160
1 0.108032 0.034508 0.001421 -0.0135017 0.0336576 0.259039 0.00125 161
1 0.0528086 0.178857 0.00236361 0.0483671 0.0238103 -0.0504002 0.00125 162
1 0.246373 0.0492052 0.00157546 -0.0331587 -0.0461005 0.126039 0.00125 163
1 0.175547 0.0330585 0.00168924 0.00179845 -0.00644745 -0.22493 0.00125 164
1 0.105507 0.249102 0.00144082 -0.0210842 0.0191056 0.15235 0.00125 165
1 0.00997672 0.107635 0.00142769 0.0348498 0.0148988 0.134675 0.00125 166
1 0.0779014 0.215569 0.00181427 0.0573766 0.0434771 -0.0908766 0.00125 167
1 0.0558557 0.252927 0.00139959 -0.00574785 -0.0213562 0.209232 0.00125 168
1 0.211502 0.0457246 0.00162652 -0.0249711 -0.00102848 -0.0381204 0.00125 169
1 0.0143932 0.103865 0.00182304 0.00404844 -0.00110917 -0.0222545 0.00125 170
1 0.229796 0.112527 0.00153792 0.0208559 0.0129623 0.107847 0.00125 171
1 0.0429702 0.104179 0.00204502 -0.0389888 -0.0241216 -0.0517296 0.00125 172
1 0.166188 0.143704 0.00158054 -0.0195056 0.00197046 -0.135361 0.00125 173
1 0.188229 0.0312044 0.00170693 -0.0513587 -0.00228218 -0.208591 0.00125 174
1 0.276544 0.142832 0.00131217 -0.014102 -0.0358907 -0.154692 0.00125 175
1 0.292582 0.136208 0.00196874 0.00987409 -0.0217241 -0.0130694 0.00125 176
1 0.288985 0.00202893 0.0017068 -0.00325725 0.00997592 -0.192934 0.00125 177
1 0.199025 0.211588 0.00189742 -0.0691412 0.0842758 -0.0424397 0.00125 178
1 0.0872916 0.070987 0.00125996 0.00525027 0.0199272 -0.302642 0.00125 179
1 0.26575 0.220348 0.00146493 -0.0237877 0.0176614 -0.233757 0.00125 180
1 0.193496 0.1457 0.00144161 -0.0251676 0.00113687 -0.0724424 0.00125 181
1 0.0250271 0.0755883 0.00203549 -0.000958183 0.051267 -0.0129097 0.00125 182
1 0.217753 0.0390765 0.00133718 -0.0501485 -0.0240792 -0.224638 0.00125 183
1 0.00297387 0.213705 0.00172422 0.0345701 0.067688 -0.064875 0.00125 184
1 0.218727 0.082758 0.00151392 0.0311212 0.0112636 -0.199927 0.00125 185
1 0.224751 0.11034 0.0023089 -0.00204232 -0.038462 -0.0434192 0.00125 186
1 0.110185 0.201953 0.00169277 -0.00470713 -0.00278968 0.0953795 0.00125 187
1 0.254465 0.240518 0.00136977 -0.0296624 0.017679 0.165134 0.00125 188
1 0.00170906 0.0534604 0.0017737 -0.0605156 -0.0489519 -0.21941 0.00125 189
1 0.272166 0.166427 0.00183458 -0.0516208 0.0525218 -0.0351902 0.00125 190
1 0.284074 0.111025 0.00136852 -0.0110655 -0.057101 -0.242544 0.00125 191
1 0.179391 0.0968992 0.00126572 0.00407739 -0.00934023 0.231881 0.00125 192
1 0.0990092 0.257157 0.00218607 -0.127124 0.0629362 -0.0325397 0.00125 193
1 0.198004 0.219428 0.00191552 -0.0198423 0.0105423 -0.112963 0.00125 194
1 0.170574 0.0175521 0.00250301 0.0308417 0.0347135 -0.0176914 0.00125 195
1 0.13815 0.0757848 0.00189032 0.0145872 0.102839 -0.0160038 0.00125 196
1 0.138763 0.193756 0.00184382 -0.0133215 -0.0241475 -0.221427 0.00125 197
1 0.243405 0.149161 0.00147344 -0.0629606 -0.121933 0.152938 0.00125 198
1 0.289409 0.199634 0.00122882 -0.0157583 -0.0169252 0.157449 0.00125 199
1 0.173936 0.0125523 0.00168766 0.0145046 0.0225889 0.123666 0.00125 200
1 0.0399945 0.103133 0.00198633 0.0149149 -0.0270961 -0.0674482 0.00125 201
1 0.170549 0.0856316 0.00130573 -0.00705124 -0.0122754 0.230482 0.00125 202
1 0.182714 0.00498065 0.00128793 -0.0308785 0.0421132 -0.00139366 0.00125 203
1 0.0746106 0.25621 0.00126701 -0.075669 -0.0736765 0.17324 0.00125 204
1 0.0912274 0.0848466 0.00152074 0.0149406 0.0204363 -0.184795 0.00125 205
1 0.303483 0.268914 0.00186099 -0.0556167 -0.019205 -0.137153 0.00125 206
1 0.209044 0.30064 0.00137518 0.0704169 0.0314464 0.116925 0.00125 207
1 0.153924 0.154655 0.00123041 0.0902186 0.0437562 0.118107 0.00125 208
1 0.0272374 0.0530595 0.00145365 0.0179938 0.0169771 0.129744 0.00125 209
1 0.200938 0.281153 0.00124 -0.0552286 0.00632999 0.17476 0.00125 210
1 0.0339537 0.287626 0.00130844 0.00396075 -0.0154861 0.177441 0.00125 211
1 0.121363 0.0921997 0.00204605 0.0615258 -0.0251102 -0.143741 0.00125 212
1 0.0517468 0.184284 0.00210089 0.0678082 0.0532335 -0.17835 0.00125 213
1 0.0637157 0.266579 0.00141495 0.0971068 0.0213434 -0.0197503 0.00125 214
1 0.142056 0.0184136 0.00124756 -0.0682769 -0.011342 -0.0600139 0.00125 215
1 0.160489 0.109264 0.00165871 0.0263118 -0.011863 -0.193374 0.00125 216
1 0.0341542 0.178512 0.00134675 0.0259513 0.0353441 0.0457122 0.00125 217
1 0.246618 0.023747 0.00134562 0.00179745 -0.048811 0.193758 0.00125 218
1 0.197382 0.0634708 0.001935 0.0224802 -0.00092172 -0.194609 0.00125 219
1 0.0929002 0.153226 0.00157752 -0.0233281 -0.0203698 -0.281939 0.00125 220
1 0.168669 0.100311 0.00127708 -0.0394312 -0.092714 0.201142 0.00125 221
1 0.254983 0.158407 0.00166445 -0.066428 0.0363683 -0.126471 0.00125 222
1 0.248769 0.0849563 0.0017767 -0.0749069 0.0549681 -0.0837841 0.00125 223
1 0.0403106 0.256815 0.00171222 -0.0265912 0.0149683 -0.217789 0.00125 224
1 0.0602682 0.283855 0.00130136 0.0181627 0.00316664 0.017582 0.00125 225
1 0.0572621 0.000654573 0.00131872 -0.0729225 -0.0116067 0.197312 0.00125 226
1 0.0359915 0.233552 0.00189229 -0.0310402 0.0652181 -0.0852284 0.00125 227
1 0.258352 0.0414781 0.00250339 -0.00407156 0.0108904 -0.0454027 0.00125 228
1 0.10911 0.0112974 0.00165828 -0.033027 -0.0264748 0.0967195 0.00125 229
1 0.0435826 0.236612 0.00150816 -0.0255537 -0.0453273 -0.240533 0.00125 230
1 0.106248 0.117652 0.00195961 -0.0223838 0.00340851 -0.189373 0.00125 231
1 0.18717 0.291836 0.00129127 0.00533252 0.030065 -0.225291 0.00125 232
1 0.237613 0.268206 0.00160807 -0.0135282 -0.0315385 -0.0908127 0.00125 233
1 0.0768491 0.00642917 0.00172068 0.0163644 0.0125555 -0.228545 0.00125 234
1 0.0629025 0.185585 0.00203957 0.0151231 -0.0242565 -0.136467 0.00125 235
1 0.166462 0.191644 0.00146523 -0.0492785 -0.060232 0.0965326 0.00125 236
1 0.0200191 0.262575 0.00157244 -0.0263964 -0.0266595 -0.211883 0.00125 237
1 0.16378 0.0925119 0.00166093 0.00858036 0.0383274 -0.188057 0.00125 238
1 0.232502 0.0889074 0.00128982 -0.00199428 -0.0305253 0.192028 0.00125 239
1 0.00483087 0.172862 0.00151417 -0.0231881 -0.0498677 0.00105835 0.00125 240
1 0.248934 0.242658 0.00140454 0.0102575 -0.0369897 -0.208509 0.00125 241
1 0.238448 0.0063459 0.00213289 0.00914941 0.023008 -0.0137804 0.00125 242
1 0.192488 0.235602 0.0017989 -0.00528182 0.00243222 -0.211519 0.00125 243
1 0.144862 0.183017 0.00179659 -0.00692602 0.00595107 -0.152577 0.00125 244
1 0.113701 0.213268 0.00137782 -0.0459069 -0.000742422 0.257669 0.00125 245
1 0.102659 0.150536 0.0020297 -0.0147075 -0.018027 -0.0293846 0.00125 246
1 0.287055 0.0746759 0.00123249 0.0238073 -0.0254068 -0.116918 0.00125 247
1 0.216323 0.305807 0.00150517 -0.0304695 -0.0102924 0.109668 0.00125 248
1 0.0488499 0.258661 0.00189115 0.0945634 0.0842473 -0.0127985 0.00125 249
1 0.287815 0.246926 0.00126935 -0.0145596 0.0725372 -0.226168 0.00125 250
1 0.0711099 0.144276 0.00145965 0.025018 -0.0370771 0.170368 0.00125 251
1 0.0558095 0.290049 0.00142625 0.0131186 0.0401979 -0.0662371 0.00125 252
1 0.111542 0.239642 0.00195785 -0.0137087 -0.0160514 -0.156239 0.00125 253
1 0.298618 0.277214 0.00148785 -0.0142114 -0.0306129 -0.120947 0.00125 254
1 0.150631 0.207755 0.00129666 -0.00506378 0.0304206 0.190908 0.00125 255
1 0.0848209 0.169028 0.00153048 0.00963851 -0.0361821 0.108378 0.00125 256
1 0.097491 0.0200204 0.00218263 0.0411785 0.00722093 -0.152579 0.00125 257
1 0.0771357 0.114605 0.00200401 -0.00828474 0.0114582 -0.0672136 0.00125 258
1 0.219669 0.154433 0.00132405 -0.0245893 -0.00469428 0.190258 0.00125 259
1 0.243041 0.248248 0.00139886 0.016942 -0.00269275 -0.201272 0.00125 260
1 0.0720462 0.290802 0.00210716 -0.00542158 -0.00715814 -0.0212125 0.00125 261
1 0.159675 0.23175 0.00138097 0.020425 -0.0160232 0.235896 0.00125 262
1 0.181284 0.00990572 0.00150218 0.0052734 -0.00839377 -0.230944 0.00125 263
1 0.293184 0.152688 0.00224334 -0.078148 0.0266679 -0.034815 0.00125 264
1 0.122044 0.264238 0.00137978 0.0596146 0.0233272 -0.212898 0.00125 265
1 0.0522775 0.235778 0.0025159 -0.00198276 -0.0193336 -0.038622 0.00125 266
1 0.13278 0.189545 0.00173807 -0.0154882 -0.0300884 -0.0496442 0.00125 267
1 0.161161 0.189198 0.00136491 -0.0129597 0.00897628 0.249408 0.00125 268
1 0.147908 0.0140959 0.002356 -0.0726993 0.0274469 -0.0483304 0.00125 269
1 0.0939885 0.283068 0.00158197 0.0233146 0.00139784 0.11886 0.00125 270
1 0.233494 0.239708 0.00147527 -0.0210999 0.041073 0.159995 0.00125 271
1 0.126947 0.220668 0.00208889 -0.00439775 0.0433671 -0.0534593 0.00125 272
1 0.157392 0.288716 0.00165909 0.0779181 0.00455249 -0.0924095 0.00125 273
1 0.28675 0.146173 0.00143421 0.0107423 -0.0176097 0.190411 0.00125 274
1 0.00811728 0.216673 0.0019912 -0.0224257 -0.0368221 -0.0668127 0.00125 275
1 0.0164394 0.263304 0.00186411 -0.0132414 -0.0411009 -0.138868 0.00125 276
1 0.141773 0.245772 0.00130816 -0.0962026 0.0254352 0.174142 0.00125 277
1 0.211662 0.0120927 0.00182343 0.0544456 -0.0253665 -0.236079 0.00125 278
1 0.0305717 0.214197 0.00133407 -0.0107965 0.0317863 0.193951 0.00125 279
1 0.167699 0.0149632 0.00216639 -0.00733211 0.0084855 -0.0155836 0.00125 280
1 0.266914 0.0791233 0.00173285 0.00509049 0.0229507 -0.0244902 0.00125 281
1 0.268046 0.242631 0.00144109 0.0185342 -0.0158971 -0.230849 0.00125 282
1 0.0875042 0.223936 0.00126215 -0.00362533 0.0055277 0.209492 0.00125 283
1 0.138773 0.0572891 0.00201498 -0.00252929 0.01223 -0.207544 0.00125 284
1 0.0804479 0.2735 0.00174633 -0.0365695 -0.0464947 -0.166939 0.00125 285
1 0.00306354 0.258213 0.00125733 0.0135467 0.00537581 -0.300066 0.00125 286
1 0.112688 0.0944389 0.00210379 -0.010882 -0.0317207 -0.08579 0.00125 287
1 0.0600674 0.0310899 0.00176701 0.0125111 0.0269049 0.0754218 0.00125 288
1 0.12303 0.202452 0.00137836 -0.00742147 0.032688 0.195095 0.00125 289
1 0.0389195 0.235159 0.00180839 -6.51057e-05 -0.033204 -0.0551938 0.00125 290
1 0.251189 0.0984488 0.0014614 -0.0235433 0.00173002 -0.228092 0.00125 291
1 0.0619528 0.112149 0.00139396 -0.0186341 0.0174661 0.192766 0.00125 292
1 0.124287 0.266382 0.001305 0.00374727 0.00345498 -0.233184 0.00125 293
1 0.220342 0.0902416 0.00125574 -0.00299787 0.0384187 0.237006 0.00125 294
1 0.097739 0.000419747 0.00137174 0.00514355 -0.0302744 0.243687 0.00125 295
1 0.224456 0.0406948 0.00150798 0.070613 0.0411846 -0.205762 0.00125 296
1 0.305051 0.134339 0.0015052 -0.0261301 -0.0464479 -0.183123 0.00125 297
1 0.248794 0.0149407 0.00130333 0.0218028 0.0497215 -0.221913 0.00125 298
1 0.128271 0.276763 0.00199548 -0.0857489 -0.0236975 -0.114023 0.00125 299
1 0.0736 0.0984729 0.00128711 -0.0610183 0.0293977 0.211301 0.00125 300
1 0.140756 0.0897687 0.00182204 -0.0262054 0.0856918 -0.117586 0.00125 301
1 0.260544 0.018241 0.00155123 0.0675272 0.102463 0.0928523 0.00125 302
1 0.0506836 0.0579592 0.00144458 0.0096352 0.0973559 -0.114 0.00125 303
1 0.0214418 0.204469 0.00240663 -0.0938511 0.00165813 -0.0125617 0.00125 304
1 0.278785 0.0531563 0.00181647 0.0603311 0.0766262 -0.149456 0.00125 305
1 0.111674 0.142821 0.0013966 -0.0442175 0.0507028 -0.188777 0.00125 306
1 0.227668 0.16971 0.0013436 -0.0139015 0.0364051 -0.245198 0.00125 307
1 0.042009 0.0158631 0.00132639 0.00748978 -0.0241011 0.176262 0.00125 308
1 0.0711543 0.163927 0.00166095 0.0223196 0.0139271 -0.123537 0.00125 309
1 0.154924 0.224531 0.00211564 0.0393048 0.00288797 -0.0731943 0.00125 310
1 0.152456 0.200197 0.00209447 -0.00319727 0.0119872 -0.173184 0.00125 311
1 0.0831986 0.0827743 0.00143416 0.0123575 0.0251142 -0.238051 0.00125 312
1 0.00624947 0.052228 0.00138291 -0.0167685 -0.00580289 -0.22553 0.00125 313
1 0.033646 0.0469833 0.00146295 0.0233645 -0.0104128 -0.224321 0.00125 314
1 0.00261923 0.0227791 0.0016185 -0.0411964 0.00108196 0.163461 0.00125 315
1 0.11524 0.0957934 0.00173303 -0.00426553 -0.00855202 -0.0952686 0.00125 316
1 0.278821 0.138017 0.00127557 -0.0653432 0.0303588 -0.240112 0.00125 317
1 0.301948 0.1878 0.00123696 -0.0674507 0.0304255 -0.189763 0.00125 318
1 0.294474 0.207049 0.00218218 0.115539 0.0355392 -0.17292 0.00125 319
1 0.276181 0.170911 0.00132885 -0.0178469 0.0074392 0.148677 0.00125 320
1 0.108737 0.0369933 0.00178911 -0.0259261 0.00908087 -0.0813261 0.00125 321
1 0.175409 0.0689222 0.00179014 0.0326268 0.0473077 -0.112339 0.00125 322
1 0.197953 0.249272 0.00221243 0.0175332 0.0482608 -0.0901426 0.00125 323
1 0.185968 0.114047 0.00180886 -0.0912157 0.0263586 -0.184566 0.00125 324
1 0.0767533 0.287428 0.0014563 0.0101023 0.0160375 -0.103724 0.00125 325
1 0.26669 0.231919 0.00142154 -0.0134828 -0.0342787 0.187563 0.00125 326
1 0.188594 0.0862199 0.00132321 0.0248024 0.0627003 0.15474 0.00125 327
1 0.0456049 0.277169 0.0013437 0.0172537 -0.00498332 -0.236702 0.00125 328
1 0.263635 0.167877 0.00168462 -0.00696819 0.0208973 -0.0826602 0.00125 329
1 0.0710818 0.102432 0.00187323 -0.0589966 -0.0557584 -0.0863826 0.00125 330
1 0.0202024 0.162309 0.00145723 -0.00809133 -0.00594413 -0.229496 0.00125 331
1 0.225048 0.208809 0.00150017 -0.00673302 -0.0769157 0.0531197 0.00125 332
1 0.175303 0.178943 0.00136878 0.0780207 -0.0355178 0.150477 0.00125 333
1 0.120032 0.0847147 0.00204211 0.0668642 0.00268321 -0.183645 0.00125 334
1 0.0245441 0.147511 0.00173919 0.0340441 0.0210702 -0.160552 0.00125 335
1 6.05216e-05 0.225856 0.00144178 0.0294015 -0.00737249 0.131172 0.00125 336
1 0.176575 0.250386 0.00182463 -0.000625568 0.00391998 -0.227833 0.00125 337
1 0.117152 0.00866311 0.00218362 -0.0375765 0.00182519 -0.0657168 0.00125 338
1 0.271885 0.204301 0.00132015 0.013294 -0.0132734 -0.00573469 0.00125 339
1 0.0644265 0.121101 0.00131033 0.0601513 0.000325623 0.1578 0.00125 340
1 0.254602 0.00265399 0.00183465 -0.0557737 0.0860533 -0.147819 0.00125 341
1 0.172061 0.237383 0.00133747 -0.00594202 0.0115022 -0.306287 0.00125 342
1 0.269364 0.175062 0.00143009 -0.0515792 -0.029419 0.0829327 0.00125 343
1 0.14205 0.102429 0.00131602 -0.0169553 -0.0447163 -0.215906 0.00125 344
1 0.10476 0.0997694 0.0014215 -0.0224793 0.00720824 -0.234969 0.00125 345
1 0.187109 0.102757 0.00137805 0.00210299 -0.0701756 -0.0795727 0.00125 346
1 0.0553185 0.175287 0.00226183 -0.0144718 -0.00534204 -0.0745612 0.00125 347
1 6.89062e-05 0.276652 0.00145763 -0.00303501 0.0019196 0.14303 0.00125 348
1 0.143018 0.133721 0.00165527 0.0017898 -0.036753 -0.267441 0.00125 349
1 0.0348757 0.26787 0.00170242 0.00696554 -0.0822946 -0.0876586 0.00125 350
1 0.140281 0.0293177 0.00138149 0.0155266 0.030363 -0.206133 0.00125 351
1 0.156171 0.292758 0.00126964 0.0121742 -0.0294632 -0.103576 0.00125 352
1 0.16188 0.0629344 0.00133931 0.00493983 0.0204065 0.168608 0.00125 353
1 0.275767 0.291021 0.00194294 -0.0030782 0.0424378 -0.081744 0.00125 354
1 0.296551 0.230043 0.00125589 0.0345731 0.0457807 0.0725808 0.00125 355
1 0.0451639 0.137492 0.00193219 0.0135218 -0.0027243 -0.226644 0.00125 356
1 0.048323 0.00105869 0.00152619 -0.00832254 -0.0227982 -0.0751106 0.00125 357
1 0.265476 0.178674 0.00131596 0.0230986 0.0308842 -0.240571 0.00125 358
1 0.229236 0.00809408 0.00147439 0.0232798 -0.0702106 0.0992419 0.00125 359
1 0.11885 0.208422 0.00187522 -0.0334751 -0.0236242 -0.0729976 0.00125 360
1 0.0757283 0.0357431 0.00166583 -0.00474487 0.0280386 -0.177059 0.00125 361
1 0.175354 0.0888616 0.0017636 -0.0257012 0.020083 0.155333 0.00125 362
1 0.288079 0.272461 0.00130144 0.0147448 -0.0110487 0.196115 0.00125 363
1 0.278934 0.283928 0.00125126 -0.00149222 0.00211621 0.0920408 0.00125 364
1 0.179795 0.196859 0.0015535 0.0269682 0.0356163 -0.285899 0.00125 365
1 0.114928 0.259197 0.00215772 0.0475802 0.00986984 -0.0474739 0.00125 366
1 0.267158 0.237256 0.00142503 -0.0111949 -0.00267821 -0.2186 0.00125 367
1 0.279773 0.0829037 0.0012557 -0.040046 0.0305383 0.200087 0.00125 368
1 0.0426253 0.273587 0.00129451 -0.0143407 0.0154061 0.242159 0.00125 369
1 0.00554842 0.0901679 0.00133922 0.041413 0.0222147 0.158319 0.00125 370
1 0.00167529 0.0872835 0.00161079 0.0039163 -0.041375 -0.216834 0.00125 371
1 0.234589 0.296653 0.00161377 -0.0241824 0.0084064 0.130406 0.00125 372
1 0.292163 0.122549 0.00153343 -0.0310182 0.00325749 0.139379 0.00125 373
1 0.194463 0.0104501 0.00144805 0.0157111 -0.0173592 -0.0573986 0.00125 374
1 0.0754021 0.228744 0.00140761 -0.0112533 -0.00215813 0.0564231 0.00125 375
1 0.0720295 0.268892 0.00167991 -0.0642794 0.0185412 -0.184233 0.00125 376
1 0.234632 0.0973853 0.00128699 0.0458753 -0.0289456 0.200677 0.00125 377
1 0.171611 0.0770103 0.00170087 -0.0140872 -0.0230479 0.142854 0.00125 378
1 0.103607 0.230245 0.00144966 -0.0712431 0.0405641 0.0808993 0.00125 379
1 0.0923658 0.189038 0.00160466 0.01006 -0.0279454 0.159743 0.00125 380
1 0.178294 0.0805546 0.00169057 0.0446988 0.0134038 -0.167827 0.00125 381
1 0.236883 0.239356 0.00126506 -0.0137332 -0.0350092 0.175204 0.00125 382
1 0.234843 0.287232 0.00157052 -0.00944019 0.004974 0.138161 0.00125 383
1 0.0404441 0.195296 0.00220782 -0.00450212 0.0168641 -0.00758285 0.00125 384
1 0.270145 0.0112701 0.00225346 -0.015408 0.0160166 -0.14529 0.00125 385
1 0.196892 0.300206 0.00182045 -0.0225836 -0.0142903 -0.144881 0.00125 386
1 0.149292 0.213919 0.0014343 0.0252787 -0.00145909 -0.196944 0.00125 387
1 0.016858 0.0739377 0.00129231 -0.0194918 0.00192888 0.0177755 0.00125 388
1 0.0736353 0.104103 0.00146171 -0.0246274 0.0191509 0.113782 0.00125 389
1 0.173779 0.0579527 0.00210022 0.00651469 0.0438352 0.00530881 0.00125 390
1 0.0423702 0.101531 0.00130052 0.0563353 0.06482 0.18328 0.00125 391
1 0.285206 0.0313712 0.00134456 -0.000399932 0.035747 -0.19087 0.00125 392
1 0.0522921 0.0112663 0.00208109 -0.0450227 -0.0519211 -0.080394 0.00125 393
1 0.171127 0.056044 0.00147602 0.000793378 0.0407837 -0.199761 0.00125 394
1 0.231498 0.130896 0.00151596 -0.00306958 -0.0242199 -0.205752 0.00125 395
1 0.181737 0.0736484 0.00218041 -0.0265112 -0.00663764 -0.184185 0.00125 396
1 0.245543 0.264 0.00159711 -0.0198036 0.0186284 -0.240253 0.00125 397
1 0.20242 0.205259 0.00169618 0.0266873 0.0214555 -0.232034 0.00125 398
1 0.0739429 0.266803 0.00219866 -0.0430706 -0.0243608 -0.0836148 0.00125 399