ITEM: TIMESTEP
1000000
ITEM: NUMBER OF ATOMS
10000
ITEM: BOX BOUNDS pp pp ff
0.0000000000000000e+00 3.6823463625000002e-01
0.0000000000000000e+00 3.6823463625000002e-01
-1.2500000000000001e-02 1.2500000000000001e-02
ITEM: ATOMS type x y z vx vy vz radius id
1 0.0509122 0.0942471 0.00167352 0.0204456 0.00698213 -0.0847065 0.00125 1
1 0.0184468 0.0326858 0.00238926 0.0185052 -0.00759218 -0.053148 0.00125 2
1 0.106135 0.152509 0.00136201 -0.0318365 -0.0207613 -0.222813 0.00125 3
1 0.12844 0.20434 0.001459 0.0256618 -0.0213662 0.214558 0.00125 4
1 0.220428 0.30953 0.00136564 0.000146626 0.016601 -0.20601 0.00125 5
1 0.0327863 0.117903 0.00199462 0.0208389 0.0034835 -0.0203041 0.00125 6
1 0.364098 0.339894 0.00187176 0.0146959 -0.00593451 -0.240386 0.00125 7
1 0.0176027 0.190712 0.00248804 0.000489452 0.0111202 -0.0352053 0.00125 8
1 0.0930889 0.342425 0.00156871 0.0174517 0.00198891 -0.102797 0.00125 9
1 0.117737 0.356621 0.00124637 0.017403 0.0185031 -0.203111 0.00125 10
1 0.251776 0.149346 0.00206536 0.0220348 -0.0196031 -0.0600897 0.00125 11
1 0.140979 0.00857725 0.00163863 0.0316175 -0.00394768 -0.088508 0.00125 12
1 0.265714 0.364705 0.00128429 0.0164403 1.35917e-05 0.0650423 0.00125 13
1 0.3389 0.274685 0.00136015 -0.00612133 -0.00241864 0.189684 0.00125 14
1 0.342066 0.288191 0.00137691 -0.00250533 -0.0156184 -0.199514 0.00125 15
1 0.134425 0.104313 0.00145986 0.0232761 0.00353047 -0.238827 0.00125 16
1 0.0315652 0.297892 0.0014748 -0.00114107 -0.00735351 -0.193061 0.00125 17
1 0.254066 0.269698 0.00156369 -0.0113113 0.0846583 -0.149655 0.00125 18
1 0.299916 0.297457 0.00136 -0.0113776 -0.0130136 0.176963 0.00125 19
1 0.303428 0.115151 0.00139065 -0.00555256 0.0065354 -0.189868 0.00125 20
1 0.152779 0.12636 0.00126244 0.00252055 -0.00101105 -0.242731 0.00125 21
1 0.336639 0.181353 0.00134334 -0.0034717 -0.00242599 0.18826 0.00125 22
1 0.072911 0.081265 0.00125833 -0.0104256 0.0187446 -0.105785 0.00125 23
1 0.270175 0.205197 0.00156883 0.0314271 0.00753432 -0.0987857 0.00125 24
1 0.335122 0.184754 0.001329 0.00307611 0.00279294 -0.204063 0.00125 25
1 0.107943 0.000884036 0.00159557 -0.00639026 0.00391086 -0.0932885 0.00125 26
1 0.165873 0.112197 0.00138806 -0.0358147 -0.00422987 0.155502 0.00125 27
1 0.209483 0.238977 0.0015933 -0.0300625 -0.0107814 0.155522 0.00125 28
1 0.263159 0.266583 0.00142128 0.00300337 -0.00951026 -0.201481 0.00125 29
1 0.194705 0.1232 0.00140138 0.00487683 0.0134673 0.187528 0.00125 30
1 0.316464 0.266561 0.00148935 -0.00177855 -0.00190934 -0.235059 0.00125 31
1 0.264234 0.0450954 0.00245142 0.0243519 -0.0231474 -0.0947258 0.00125 32
1 0.131133 0.196159 0.00136611 0.0284264 -0.0162162 -0.188393 0.00125 33
1 0.318016 0.156883 0.00145812 0.0199386 0.00399201 -0.0683177 0.00125 34
1 0.0111012 0.143706 0.0014914 -0.0533845 -0.0984154 0.0704955 0.00125 35
1 0.114168 0.307275 0.00238337 -0.00972197 -0.0276852 -0.0244532 0.00125 36
1 0.145897 0.0523841 0.001287 -0.00880871 -0.00715593 0.195197 0.00125 37
1 0.213655 0.0215717 0.00132805 0.030046 0.0243026 -0.0684752 0.00125 38
1 0.280449 0.257024 0.00201198 0.00548055 0.00798972 -0.0645755 0.00125 39
1 0.326951 0.153926 0.00227818 -0.00630734 0.00398931 -0.165038 0.00125 40
1 0.128871 0.279401 0.00140015 0.00203196 0.0100319 0.149243 0.00125 41
1 0.239601 0.35966 0.00206103 -0.0038195 0.0171411 -0.0146187 0.00125 42
1 0.316604 0.0165252 0.00223054 -0.00172131 0.00566644 -0.147801 0.00125 43
1 0.184672 0.16081 0.00134497 0.0292531 -0.0360882 -0.280135 0.00125 44
1 0.263445 0.0540777 0.00154218 -0.0793648 -0.0569696 0.0457368 0.00125 45
1 0.210823 0.335893 0.00141633 -0.0177901 -0.03054 -0.20592 0.00125 46
1 0.077178 0.146354 0.00251196 0.00722516 0.014159 -0.0579529 0.00125 47
1 0.330672 0.139308 0.00129547 -0.013155 0.0211299 -0.242026 0.00125 48
1 0.246368 0.146531 0.00133645 -0.0231498 -0.0060051 -0.226659 0.00125 49
1 0.242831 0.290147 0.00128921 0.0255979 -0.0407803 0.153114 0.00125 50
1 0.0974105 0.114175 0.00178546 0.00206372 0.0210987 -0.0790389 0.00125 51
1 0.24924 0.0429111 0.00134704 -0.0122375 -0.0147454 0.186987 0.00125 52
1 0.0855783 0.361287 0.00125111 -0.00151637 -0.00839107 0.167051 0.00125 53
1 0.060036 0.175111 0.00217545 0.0159344 0.0160659 0.0128095 0.00125 54
1 0.238435 0.0117485 0.00135049 0.0473225 -0.0353046 -0.196457 0.00125 55
1 0.119315 0.283825 0.0017873 0.000591299 0.00266037 -0.218632 0.00125 56
1 0.32434 0.186307 0.00145907 0.0140245 0.00124875 0.12951 0.00125 57
1 0.0231533 0.106171 0.0013003 -0.0352307 0.00773376 0.204977 0.00125 58
1 0.135924 0.364586 0.00147709 -0.0129792 0.00125249 -0.197158 0.00125 59
1 0.300479 0.0227893 0.00131277 -0.0243076 0.0203586 -0.0360089 0.00125 60
1 0.0548341 0.326661 0.00221582 0.0279248 0.0141231 -0.0387341 0.00125 61
1 0.0389884 0.0877912 0.00181008 -0.00335512 -0.00634214 -0.063888 0.00125 62
1 0.283221 0.0894514 0.00154093 -0.0310528 -0.0106673 -0.290659 0.00125 63
1 0.115496 0.262127 0.00174639 0.00229765 -0.0088656 -0.222391 0.00125 64
1 0.328467 0.258411 0.00172101 0.00913278 -0.0102558 0.101641 0.00125 65
1 0.154261 0.314498 0.00128357 -0.000193521 -0.01343 -0.18956 0.00125 66
1 0.181793 0.122749 0.00126636 0.0025411 -0.00246753 -0.227608 0.00125 67
1 0.188319 0.356895 0.00126909 0.0119519 -0.00399677 -0.232665 0.00125 68
1 0.109589 0.265877 0.0016092 -0.00365962 -0.0219482 -0.183289 0.00125 69
1 0.0341718 0.124478 0.00139346 0.0119077 -0.0474215 0.249335 0.00125 70
1 0.052921 0.058983 0.00147753 0.0102091 -0.0123291 0.124055 0.00125 71
1 0.340795 0.131943 0.00181683 -0.00781123 0.00284411 0.11426 0.00125 72
1 0.0556149 0.258435 0.00137833 0.0119147 -0.00344998 -0.222926 0.00125 73
1 0.278981 0.00413826 0.00134267 0.00646064 0.012453 0.191186 0.00125 74
1 0.311793 0.219308 0.00163207 0.0176466 -0.00836765 0.149026 0.00125 75
1 0.254412 0.28114 0.00174835 0.00848947 -0.0194014 0.155442 0.00125 76
1 0.112575 0.235992 0.00137193 0.0184971 -0.00396305 -0.238916 0.00125 77
1 0.307903 0.276763 0.00135579 -0.025953 -0.00655475 -0.108062 0.00125 78
1 0.120472 0.0436312 0.00150475 0.021285 0.0372628 0.135618 0.00125 79
1 0.163283 0.280158 0.00170073 -0.0231567 -0.0109616 0.182236 0.00125 80
1 0.340134 0.201557 0.00148769 -0.0111921 -0.00584578 -0.228425 0.00125 81
1 0.203253 0.310674 0.00131785 -0.0317133 0.00902001 0.221154 0.00125 82
1 0.327632 0.137348 0.00139833 -0.0104038 0.0175817 0.139816 0.00125 83
1 0.127185 0.350842 0.0013203 -0.007852 0.00911836 0.22978 0.00125 84
1 0.106749 0.0829654 0.00135741 0.00639774 -0.000826018 0.148578 0.00125 85
1 0.271831 0.316215 0.00200295 0.00173567 -0.0129577 -0.0759965 0.00125 86
1 0.0165267 0.17112 0.00158922 0.0196279 0.00736235 0.141163 0.00125 87
1 0.113455 0.199651 0.00132854 0.0230385 -0.0561503 -0.222687 0.00125 88
1 0.0163483 0.343643 0.00233051 -0.00674011 -0.0187411 -0.047886 0.00125 89
1 0.242081 0.122547 0.00129038 0.00144324 -0.00854233 -0.231465 0.00125 90
1 0.283111 0.18921 0.00171746 -0.000468307 0.00653725 -0.214913 0.00125 91
1 0.126794 0.0349169 0.00220395 5.21798e-05 -0.0100837 -0.151849 0.00125 92
1 0.23078 0.15079 0.00156053 0.0377832 -0.00599501 -0.185505 0.00125 93
1 0.122637 0.107981 0.00140374 -0.0254248 -0.0345685 -0.217938 0.00125 94
1 0.165922 0.0929662 0.00124334 -0.0249566 0.0136055 -0.276384 0.00125 95
1 0.133353 0.0738368 0.00249128 -0.000662565 -0.00542257 -0.050694 0.00125 96
1 0.362054 0.198055 0.00158843 0.00161564 -0.0146505 -0.177525 0.00125 97
1 0.199714 0.25228 0.00150607 -0.0110283 0.011272 0.218283 0.00125 98
1 0.0509907 0.138558 0.00133678 0.00996095 0.00810664 0.172911 0.00125 99
1 0.34602 0.252151 0.00139836 -0.013668 -0.00629271 0.150491 0.00125 100
1 0.242947 0.159771 0.00125679 0.0184948 0.0402474 0.0587316 0.00125 101
1 0.138343 0.329583 0.00145978 0.0104679 0.00330921 0.131372 0.00125 102
1 0.116566 0.150292 0.00177685 0.020602 -0.00959412 -0.21736 0.00125 103
1 0.198844 0.10682 0.00138407 -0.00370271 0.00398549 0.202904 0.00125 104
1 0.202771 0.177555 0.0013176 0.061899 -0.0211665 -0.241251 0.00125 105
1 0.268536 0.35908 0.00135478 -0.00096778 -0.00412475 -0.235418 0.00125 106
1 0.211592 0.0373169 0.00127843 -0.0120484 -0.00510728 0.185141 0.00125 107
1 0.361367 0.212214 0.00201539 -0.00391027 -0.0120693 -0.186774 0.00125 108
1 0.356738 0.136308 0.00131106 -0.0220765 0.0116574 0.18074 0.00125 109
1 0.123786 0.10447 0.00125257 0.0217826 -0.00313607 0.208197 0.00125 110
1 0.104832 0.0802626 0.00125552 -0.0155133 0.0335952 -0.227244 0.00125 111
1 0.00369222 0.128175 0.0013115 -0.0318936 0.0125491 -0.134642 0.00125 112
1 0.241659 0.127884 0.00187844 -0.0420459 -0.00334586 -0.211037 0.00125 113
1 0.34293 0.210183 0.0012855 -0.00626095 -0.00300951 -0.2841 0.00125 114
1 0.338164 0.356297 0.00205005 -0.0151689 -0.00227552 -0.0624287 0.00125 115
1 0.144654 0.311177 0.00151167 -0.0249858 0.00688723 0.0960089 0.00125 116
1 0.218448 0.261311 0.00129012 0.0113641 -0.00829649 -0.236855 0.00125 117
1 0.282669 0.297493 0.00124537 0.0150813 -0.00343929 -0.00267871 0.00125 118
1 0.363426 0.104865 0.00123201 -0.0196004 0.00821974 0.0822619 0.00125 119
1 0.199494 0.129528 0.00157467 -0.0128197 0.00704331 -0.24043 0.00125 120
1 0.0701702 0.185599 0.00138669 0.00497645 0.00365289 -0.224257 0.00125 121
1 0.15177 0.196968 0.00149817 0.0135075 -0.0219032 0.192258 0.00125 122
1 0.234626 0.363457 0.00134489 -0.0208476 -0.0462423 0.110647 0.00125 123
1 0.197367 0.333047 0.00131799 0.0172859 0.0133293 -0.234328 0.00125 124
1 0.246143 0.231922 0.00126147 0.0186953 0.017393 0.193785 0.00125 125
1 0.0987674 0.0818194 0.0015685 0.0300494 -0.0135833 -0.189784 0.00125 126
1 0.220504 0.336159 0.00133984 -0.00931709 -0.00969896 -0.225449 0.00125 127
1 0.0788946 0.00469102 0.00135073 -0.0122368 -0.00258399 -0.25279 0.00125 128
1 0.194524 0.35904 0.0014346 -0.0139829 0.00981296 0.25623 0.00125 129
1 0.147708 0.232801 0.00160467 -0.00870192 -0.00304673 -0.0916981 0.00125 130
1 0.248191 0.363847 0.00173738 -0.0152558 -0.0127707 -0.0747776 0.00125 131
1 0.150112 0.31376 0.00233464 0.0388675 -0.00855918 -0.0447158 0.00125 132
1 0.339365 0.135595 0.00236892 0.0145046 0.0146546 -0.041991 0.00125 133
1 0.154128 0.138457 0.00217705 -0.0170865 0.024917 -0.158193 0.00125 134
1 0.240036 0.282712 0.0014458 -0.0161644 -0.029847 -0.242809 0.00125 135
1 0.0897686 0.0341927 0.00131294 0.0169078 -0.0232717 0.233089 0.00125 136
1 0.145206 0.151289 0.00244888 0.00437813 -0.0424436 -0.0716562 0.00125 137
1 0.265441 0.271723 0.00141461 -0.0179793 0.0362069 0.249731 0.00125 138
1 0.181841 0.354458 0.0014286 -0.0156998 -0.00596975 -0.265479 0.00125 139
1 0.311274 0.110609 0.00149149 -0.00622303 0.00174913 0.11754 0.00125 140
1 0.250135 0.345139 0.0013214 -0.0198969 -0.00193248 0.201163 0.00125 141
1 0.124078 0.0282374 0.00147162 0.0367157 0.00410083 -0.267484 0.00125 142
1 0.306015 0.0370772 0.00145292 0.0329171 0.0140997 -0.118565 0.00125 143
1 0.346958 0.27368 0.00128906 0.00503064 0.0110909 0.25895 0.00125 144
1 0.128086 0.101252 0.00132571 0.0254328 -0.0437287 0.241233 0.00125 145
1 0.358548 0.078869 0.00158348 0.00820743 0.0265834 -0.0856734 0.00125 146
1 0.275346 0.224366 0.00125768 -0.0202098 0.00599262 -0.245646 0.00125 147
1 0.165908 0.0543453 0.00142588 0.013601 0.0581182 -0.22689 0.00125 148
1 0.221848 0.255047 0.00148131 -0.01165 -0.000615004 -0.232852 0.00125 149
1 0.327661 0.310773 0.00123726 0.033472 0.0514374 -0.148725 0.00125 150
1 0.164047 0.0510708 0.00124456 -0.022033 -0.0159912 0.0451018 0.00125 151
1 0.0192045 0.222209 0.00157991 0.00719789 -0.0270996 -0.175678 0.00125 152
1 0.278394 0.299836 0.00246858 0.0288886 0.01735 -0.055284 0.00125 153
1 0.199345 0.0723874 0.00225004 0.0107245 0.00523439 -0.173692 0.00125 154
1 0.247482 0.062054 0.00132879 0.00432161 0.00725244 -0.237769 0.00125 155
1 0.079818 0.000410975 0.00149216 0.00458877 0.000261541 0.12658 0.00125 156
1 0.197448 0.353792 0.00153402 -0.0122945 -0.0168648 0.108194 0.00125 157
1 0.176749 0.0503372 0.00232671 -0.00182463 0.0096891 0.0149577 0.00125 158
1 0.12576 0.116668 0.00161652 -0.0238788 0.0956845 0.0370473 0.00125 159
1 0.275176 0.0446925 0.00170659 -0.0156601 0.00308987 -0.0310718 0.00125 160
1 0.138857 0.332491 0.00142069 0.0157979 -0.000866656 -0.0874509 0.00125 161
1 0.0122532 0.210723 0.00175408 0.0145134 -0.0158854 -0.0814579 0.00125 162
1 0.336279 0.192006 0.00146383 0.0168067 0.0140629 0.151626 0.00125 163
1 0.147787 0.0150264 0.00133623 0.00486614 0.0187759 0.243132 0.00125 164
1 0.0204433 0.265344 0.00144659 -0.00422943 0.0185822 0.218074 0.00125 165
1 0.0192765 0.331268 0.00138487 0.0116664 0.00134564 0.246513 0.00125 166
1 0.29746 0.303591 0.00186742 0.0118468 0.00433028 -0.0745072 0.00125 167
1 0.12844 0.170133 0.00131052 0.00570763 0.00735573 -0.277175 0.00125 168
1 0.361136 0.0974406 0.00149103 -0.0186503 -0.000873783 0.11972 0.00125 169
1 0.0437729 0.346921 0.00169316 -0.0513232 0.00182819 -0.192077 0.00125 170
1 0.266698 0.101678 0.00167236 0.0311152 0.00185841 0.0983634 0.00125 171
1 0.234101 0.350053 0.00138945 0.0167585 -0.0150203 -0.206884 0.00125 172
1 0.197316 0.36477 0.00144857 0.0132937 0.00256473 0.219781 0.00125 173
1 0.0964007 0.245458 0.00149232 -0.000663667 0.00118964 -0.260055 0.00125 174
1 0.281911 0.105362 0.00138641 0.00949938 -0.00461776 0.156421 0.00125 175
1 0.166739 0.0436329 0.00133583 -0.00741816 -0.00752713 -0.0823109 0.00125 176
1 0.160683 0.031638 0.00123133 0.0155118 0.00452711 0.0594837 0.00125 177
1 0.264976 0.310059 0.00125117 -0.00502468 -0.00253813 -0.302986 0.00125 178
1 0.286773 0.313787 0.00138419 -0.00851655 -0.00686648 -0.242396 0.00125 179
1 0.163475 0.172435 0.00148056 -0.0299885 -0.00750911 -0.0733015 0.00125 180
1 0.174319 0.184201 0.0015878 -0.0391776 0.0166008 -0.231973 0.00125 181
1 0.310672 0.367922 0.00157781 -0.00798219 0.0115806 0.0548559 0.00125 182
1 0.223785 0.109052 0.0015141 -0.00686214 0.002428 -0.231994 0.00125 183
1 0.316723 0.166844 0.00158391 0.0435962 0.00357502 -0.197865 0.00125 184
1 0.00726589 0.16985 0.00194823 -0.0514559 -0.0136515 -0.079503 0.00125 185
1 0.139192 0.0205811 0.00122475 0.0132456 0.0153106 0.0366899 0.00125 186
1 0.141536 0.367044 0.0012357 0.00136868 0.0108516 -0.125292 0.00125 187
1 0.24387 0.0379887 0.0016883 -0.0189188 -0.0123434 0.0607347 0.00125 188
1 0.171652 0.00631438 0.0014715 -0.00299975 0.00292826 -0.238741 0.00125 189
1 0.00409074 0.261695 0.00134008 -0.00102019 -0.00719034 -0.256234 0.00125 190
1 0.22576 0.0416457 0.00147135 0.0283628 -0.0061086 0.21389 0.00125 191
1 0.0380148 0.328027 0.00174924 -0.0137283 -0.0286244 -0.0912563 0.00125 192
1 0.133758 0.117123 0.0018138 0.0164095 0.0156972 0.118549 0.00125 193
1 0.242459 0.120039 0.0019618 0.00708278 -0.00407965 -0.00503303 0.00125 194
1 0.0926947 0.148717 0.00147559 -0.00677643 -0.0230902 0.205087 0.00125 195
1 0.0808614 0.194359 0.00190742 0.0101364 -0.0373068 -0.236176 0.00125 196
1 0.344004 0.148788 0.00245933 0.0146045 -0.00276969 -0.036017 0.00125 197
1 0.22275 0.223139 0.00152078 0.0199596 0.00613999 0.197487 0.00125 198
1 0.262855 0.0257245 0.00161612 -0.0230988 -0.029348 -0.0907807 0.00125 199
1 0.221814 0.105932 0.00201327 -0.0114891 -0.0031603 -0.0812492 0.00125 200
1 0.316505 0.225984 0.0013296 -0.00163809 0.00269377 0.192567 0.00125 201
1 0.149821 0.261206 0.00173892 0.0604736 0.0538749 -0.173234 0.00125 202
1 0.140086 0.3569 0.00124572 -0.0290739 -0.0111217 -0.221323 0.00125 203
1 0.039049 0.0532586 0.00220636 0.0102119 0.00469314 -0.152053 0.00125 204
1 0.319017 0.297373 0.00184736 0.0231373 -0.00448501 -0.15203 0.00125 205
1 0.0537344 0.0552631 0.00140067 -0.0837541 -0.0179678 0.0611431 0.00125 206
1 0.366461 0.203516 0.00244135 0.0274463 0.0284029 -0.0456693 0.00125 207
1 0.0811559 0.0697451 0.00152039 -0.0142539 0.00637441 0.0981812 0.00125 208
1 0.20322 0.170872 0.00152356 0.0103569 0.00289649 -0.237671 0.00125 209
1 0.0691178 0.29028 0.00144975 -0.018305 -0.0158816 -0.209778 0.00125 210
1 0.135239 0.172848 0.00146297 -0.0360243 -0.0214925 -0.114098 0.00125 211
1 0.219094 0.244982 0.00225505 0.0262928 -0.0140576 -0.0112595 0.00125 212
1 0.24642 0.243823 0.00175709 0.00511004 -0.00681575 0.146795 0.00125 213
1 0.115259 0.274868 0.00146742 -0.0162074 -0.00159316 0.132298 0.00125 214
1 0.317185 0.253678 0.00145968 -0.00420696 0.0183132 -0.180199 0.00125 215
1 0.0477632 0.0423942 0.00238555 -0.0338753 0.0121715 0.0248866 0.00125 216
1 0.151731 0.0191483 0.00213175 0.0753953 0.00855933 -0.0649532 0.00125 217
1 0.315564 0.232397 0.00127651 0.00995927 0.0195453 -0.231215 0.00125 218
1 0.298064 0.211021 0.00129444 0.0174334 -0.0400208 -0.213626 0.00125 219
1 0.0612884 0.107764 0.00149914 -2.15414e-05 -0.00890192 -0.0751333 0.00125 220
1 0.280425 0.0403747 0.00145395 0.0336778 -0.00284927 0.209158 0.00125 221
1 0.292454 0.287364 0.00150672 -0.0132015 0.015031 0.109918 0.00125 222
1 0.33016 0.108111 0.00151922 0.0230772 -0.00227993 0.103436 0.00125 223
1 0.323625 0.280123 0.00193886 -0.0469902 0.00574377 -0.0667628 0.00125 224
1 0.208817 0.0447419 0.00130091 -0.000102242 -0.00195946 -0.216442 0.00125 225
1 0.213788 0.041565 0.00131731 0.0235928 0.015172 -0.285831 0.00125 226
1 0.202998 0.237221 0.00141245 -0.023222 -0.00934521 0.177604 0.00125 227
1 0.206114 0.0185908 0.0013662 -0.016318 -0.0124625 0.186895 0.00125 228
1 0.261755 0.152275 0.00146728 0.00587585 0.0086605 -0.232041 0.00125 229
1 0.339006 0.146943 0.00122983 0.0130909 -0.00819236 -0.0403209 0.00125 230
1 0.333455 0.226025 0.00125973 0.00285902 -0.00781716 -0.209265 0.00125 231
1 0.354982 0.284357 0.00205027 -0.0309655 0.0205307 -0.0208638 0.00125 232
1 0.270781 0.323934 0.00217498 0.00470096 -0.00188896 -0.158 0.00125 233
1 0.365 0.237773 0.00148484 -0.0442751 -0.0107992 0.109232 0.00125 234
1 0.173145 0.159501 0.0014338 -0.0331883 0.0210619 -0.230958 0.00125 235
1 0.311606 0.31534 0.00233018 -0.0195117 0.00129911 -0.0435393 0.00125 236
1 0.139517 0.267179 0.00144283 -0.00727305 -0.00277335 -0.237427 0.00125 237
1 0.113568 0.126633 0.00131271 -0.0132879 0.0157114 0.178061 0.00125 238
1 0.157423 0.143117 0.00151671 0.00503656 -0.0227975 -0.23818 0.00125 239
1 0.132539 0.00316734 0.00180028 -0.0266223 -0.0233619 -0.258741 0.00125 240
1 0.0988312 0.0236349 0.00130712 -0.0129857 -0.0259884 -0.292195 0.00125 241
1 0.101493 0.270952 0.00136838 0.011558 0.0178331 0.187344 0.00125 242
1 0.0672454 0.00451122 0.00248565 -0.0189851 -0.0667331 -0.0486221 0.00125 243
1 0.225776 0.129833 0.00128052 0.00712441 0.000919423 -0.278764 0.00125 244
1 0.201512 0.119947 0.00132101 0.0140742 0.0185939 -0.312441 0.00125 245
1 0.00969346 0.34376 0.00135086 -0.0114429 -0.0140899 0.134951 0.00125 246
1 0.363142 0.31972 0.00238658 0.0168173 -0.016511 -0.099714 0.00125 247
1 0.057973 0.327861 0.00219593 0.0116216 0.00402945 -0.173105 0.00125 248
1 0.138542 0.263367 0.00195694 -0.00129987 -0.00186145 -0.185407 0.00125 249
1 0.177244 0.16759 0.00173952 -0.0117883 0.00303587 -0.268435 0.00125 250
1 0.134038 0.276325 0.00163429 0.0455412 0.0497053 -0.246894 0.00125 251
1 0.030078 0.0407043 0.00128886 -0.0596011 -0.0154493 0.199419 0.00125 252
1 0.120723 0.14637 0.00144074 0.0124429 0.0135849 -0.237773 0.00125 253
1 0.355415 0.0946805 0.00135737 0.0269315 -0.000503451 -0.267114 0.00125 254
1 0.0619497 0.23268 0.00126244 0.020393 -0.000760205 -0.100616 0.00125 255
1 0.0698283 0.0111285 0.00167229 0.0539808 -0.00939838 0.198889 0.00125 256
1 0.11403 0.0039806 0.00134416 0.0164256 -0.0191008 -0.197159 0.00125 257
1 0.340904 0.0477813 0.00132473 -0.00862018 0.00225373 0.0525619 0.00125 258
1 0.198483 0.309062 0.00133225 -0.000905252 -0.00738751 0.170747 0.00125 259
1 0.228372 0.0193219 0.00131187 0.026325 -0.0283642 0.0743716 0.00125 260
1 0.0856217 0.218053 0.00229455 -0.0163684 0.00659359 0.0212829 0.00125 261
1 0.333766 0.114963 0.0020872 -0.0288524 0.0421831 -0.108014 0.00125 262
1 0.175614 0.276735 0.00141551 -0.0305762 -0.0203852 0.106019 0.00125 263
1 0.322012 0.257539 0.00171715 0.00201488 -0.00748705 -0.228394 0.00125 264
1 0.243303 0.229658 0.00155871 -0.0129873 -0.00459685 0.0855907 0.00125 265
1 0.167534 0.338896 0.00147886 -0.0104111 0.00773617 0.212706 0.00125 266
1 0.316458 0.121253 0.00127644 0.0118419 -0.0236436 -0.23004 0.00125 267
1 0.206471 0.0753548 0.00123177 -0.00351053 -0.020058 -0.0812488 0.00125 268
1 0.242044 0.166669 0.00123444 -0.00231013 -0.00150915 0.0882021 0.00125 269
1 0.0324627 0.0211173 0.00147512 -0.0217751 0.0294068 0.207153 0.00125 270
1 0.121626 0.318567 0.00150401 -0.0307085 -0.0107609 -0.0465573 0.00125 271
1 0.0180778 0.144768 0.00250747 -0.000756133 0.000532882 -0.0330131 0.00125 272
1 0.208139 0.364436 0.00213159 -0.0753226 -0.0409608 -0.000349367 0.00125 273
1 0.0324512 0.357768 0.00142684 -0.00908313 0.000244024 -0.246129 0.00125 274
1 0.0195857 0.11748 0.00149969 0.00611175 -0.00746435 -0.193224 0.00125 275
1 0.349524 0.237647 0.00135286 0.0383366 0.0292263 0.162844 0.00125 276
1 0.336794 0.154352 0.00236131 -0.0651367 0.01292 -0.0281165 0.00125 277
1 0.0168223 0.236183 0.00170478 0.0122871 0.00867114 0.0645022 0.00125 278
1 0.0432731 0.232545 0.00173531 -0.0115899 0.0289735 -0.223875 0.00125 279
1 0.00288102 0.357707 0.0017255 -0.0299397 -0.0372186 -0.200715 0.00125 280
1 0.272236 0.240978 0.00147892 0.0361452 -0.00547506 -0.165425 0.00125 281
1 0.212743 0.112144 0.00152253 -0.00270438 -0.0229395 0.0688556 0.00125 282
1 0.0624764 0.211736 0.00125714 -0.000750567 0.0176151 0.216303 0.00125 283
1 0.300088 0.143976 0.00176618 -0.00205899 -0.00913584 -0.259358 0.00125 284
1 0.0817822 0.28956 0.00133221 -0.017983 -0.01126 0.175923 0.00125 285
1 0.29598 0.320223 0.00126031 -0.00673773 -0.00156758 0.214229 0.00125 286
1 0.349287 0.296562 0.00143482 -0.00264976 0.0199271 0.137036 0.00125 287
1 0.0979648 0.278083 0.00145304 0.0120646 0.0144574 -0.232255 0.00125 288
1 0.133569 0.147453 0.00123048 -0.0027869 0.00424758 0.0736136 0.00125 289
1 0.126532 0.258574 0.00125213 -0.0191772 -0.00603702 -0.239365 0.00125 290
1 0.232266 0.107284 0.00130645 -0.00781922 -0.0164107 0.267838 0.00125 291
1 0.365542 0.300733 0.00159912 -0.00231213 0.0273619 -0.234366 0.00125 292
1 0.0443282 0.0745047 0.00154018 -0.0259775 0.00594158 -0.233311 0.00125 293
1 0.0710678 0.0935046 0.00134477 -0.018195 -0.00796426 0.168826 0.00125 294
1 0.253604 0.0419602 0.00133265 0.000254352 -0.0167899 -0.23362 0.00125 295
1 0.259024 0.289714 0.00244537 -0.0529342 -0.0210144 -0.0333132 0.00125 296
1 0.00993506 0.190962 0.00136364 0.0179684 -0.0190947 0.136739 0.00125 297
1 0.0986997 0.361894 0.00151245 0.0144205 -0.0174751 -0.191418 0.00125 298
1 0.235057 0.252646 0.00222991 0.0734028 0.0382581 -0.041778 0.00125 299
1 0.32954 0.0495118 0.00123086 -0.0151768 0.00249831 0.0694445 0.00125 300
1 0.310886 0.247758 0.00139654 0.0100338 -0.00384975 -0.310209 0.00125 301
1 0.339356 0.125355 0.00213964 0.0703969 -0.0279727 -0.0504699 0.00125 302
1 0.142568 0.0278358 0.00242883 0.0223723 0.121243 -0.0250669 0.00125 303
1 0.276547 0.0236953 0.00172463 -0.0235031 0.0159781 -0.157959 0.00125 304
1 0.24626 0.0743698 0.0015809 -0.0191586 -0.00552917 -0.175491 0.00125 305
1 0.304908 0.349676 0.00151118 -0.0255206 -0.00360498 0.170053 0.00125 306
1 0.302369 0.28219 0.00154955 0.00628386 0.035697 0.0945913 0.00125 307
1 0.125281 0.140188 0.00180592 0.0517175 -0.0486585 -0.056217 0.00125 308
1 0.110504 0.0220411 0.00126568 -0.000539291 -0.0212316 0.192169 0.00125 309
1 0.0360707 0.0326987 0.0016049 -0.0415991 0.0188517 0.099725 0.00125 310
1 0.0664622 0.0697091 0.00137447 0.0336504 -0.0282465 0.25172 0.00125 311
1 0.151307 0.118992 0.00133412 0.0125219 -0.0343588 0.0241719 0.00125 312
1 0.275516 0.0561648 0.00148081 0.00355744 0.0395262 0.203702 0.00125 313
1 0.253928 0.028654 0.00193974 0.00192797 -0.0092056 -0.192836 0.00125 314
1 0.0962176 0.138482 0.0019831 -0.0448592 -0.0554777 -0.190642 0.00125 315
1 0.0121326 0.300903 0.00180735 0.0151231 0.0177037 0.106801 0.00125 316
1 0.177396 0.0333318 0.00179216 0.000226675 -0.00679937 -0.170139 0.00125 317
1 0.266048 0.185536 0.00148597 -0.0123415 -0.0573847 -0.0965146 0.00125 318
1 0.0822925 0.0489369 0.00133026 0.0366075 -0.0463175 -0.209148 0.00125 319
1 0.265623 0.143708 0.00175533 -0.0151617 -0.00750934 0.141575 0.00125 320
1 0.00674085 0.210125 0.00144684 -0.0154905 -0.0179093 -0.264937 0.00125 321
1 0.0473978 0.00900587 0.00161827 0.033781 0.0367305 -0.232888 0.00125 322
1 0.172313 0.259948 0.00188817 -0.00616066 0.0367309 -0.038662 0.00125 323
1 0.323257 0.103432 0.00193949 -0.012134 -0.0123256 -0.237143 0.00125 324
1 0.179526 0.156984 0.0013801 0.0102276 0.0334613 0.162336 0.00125 325
1 0.0925392 0.209071 0.00123519 0.0149984 -0.00212824 -0.137185 0.00125 326
1 0.327237 0.271989 0.00145091 -0.010203 -0.00714295 0.223836 0.00125 327
1 0.0257102 0.270772 0.00217763 1.99858e-05 -0.015469 -0.0541088 0.00125 328
1 0.183526 0.272802 0.00126011 -0.00961738 -0.0779987 0.215124 0.00125 329
1 0.20114 0.329164 0.00127306 0.00432189 -0.00707686 0.0780749 0.00125 330
1 0.20853 0.0913499 0.00134199 -0.00662165 -0.00185061 -0.23634 0.00125 331
1 0.0495509 0.216755 0.00232499 0.0216686 0.0647295 -0.148882 0.00125 332
1 0.310113 0.335855 0.00158733 -0.00816832 -0.00352883 0.037691 0.00125 333
1 0.116183 0.0335392 0.00130489 0.00501854 0.00608236 -0.282345 0.00125 334
1 0.3357 0.344816 0.00238215 -0.0238342 0.00812391 -0.120568 0.00125 335
1 0.316633 0.0738226 0.00187576 -0.0103882 -0.0165201 -0.0386335 0.00125 336
1 0.288647 0.263365 0.00186713 -0.00887052 -0.0219723 -0.205939 0.00125 337
1 0.280424 0.288356 0.00145633 0.00634907 0.0156721 0.100116 0.00125 338
1 0.203155 0.234303 0.00136318 -0.00228519 -0.00830059 -0.19774 0.00125 339
1 0.342339 0.128955 0.00133483 0.0117199 0.0160478 0.155347 0.00125 340
1 0.276871 0.306188 0.00123981 0.0194289 0.0131615 0.163518 0.00125 341
1 0.0664098 0.22118 0.00147757 0.00910393 0.00685483 0.0737551 0.00125 342
1 0.0651129 0.0306615 0.00126224 -0.011243 0.0190071 0.177732 0.00125 343
1 0.178521 0.30935 0.00168198 0.0161256 0.000315836 0.0947214 0.00125 344
1 0.155347 0.0455242 0.00209028 -0.0198962 -0.011813 -0.0132762 0.00125 345
1 0.186771 0.184526 0.00222312 -0.00915245 0.00443024 -0.154774 0.00125 346
1 0.309306 0.0487071 0.00133404 0.0339668 0.0173649 0.158383 0.00125 347
1 0.232687 0.310679 0.00209208 0.0181433 0.00802024 -0.119728 0.00125 348
1 0.0783635 0.22525 0.00134394 0.0480236 -0.00711521 -0.19294 0.00125 349
1 0.155297 0.150834 0.00138119 0.00936722 0.0209038 0.256495 0.00125 350
1 0.0780362 0.0485368 0.00165127 0.0351065 -0.00548764 -0.158343 0.00125 351
1 0.102597 0.220622 0.00219209 -0.0144215 0.00355969 -0.184961 0.00125 352
1 0.0810399 0.123956 0.00175373 -0.0180643 -0.014407 0.155962 0.00125 353
1 0.322902 0.0221077 0.00145432 -0.0420863 0.0291316 -0.0589941 0.00125 354
1 0.341931 0.00879497 0.00169221 -0.0126756 -0.00624076 -0.180108 0.00125 355
1 0.232063 0.305524 0.00123882 -0.0121179 -0.00626093 0.17651 0.00125 356
1 0.126042 0.0892485 0.00125387 0.0126782 -0.0279228 -0.246422 0.00125 357
1 0.295472 0.0675452 0.00177421 0.0191977 -0.000783633 0.137181 0.00125 358
1 0.0444195 0.0361365 0.00180922 0.0169737 0.0063833 -0.212403 0.00125 359
1 0.0368265 0.334774 0.002147 0.0263726 -0.00470603 -0.165393 0.00125 360
1 0.212622 0.0745846 0.00165151 0.0193941 -0.0259959 0.0914465 0.00125 361
1 0.277055 0.0312435 0.00139567 -0.0121229 -0.00429956 -0.229173 0.00125 362
1 0.321263 0.315331 0.00142567 -0.0344378 -0.0154161 0.159113 0.00125 363
1 0.337641 0.103417 0.00138394 0.0302823 0.0155718 -0.240755 0.00125 364
1 0.336489 0.137219 0.00155293 0.00924957 -0.00435511 -0.243048 0.00125 365
1 0.355375 0.0309713 0.00124386 0.00837231 -0.0139016 -0.276746 0.00125 366
1 0.0065122 0.204572 0.00132394 -0.0100509 -0.0285949 -0.0920656 0.00125 367
1 0.0230275 0.142162 0.00158517 -0.0190208 5.18953e-05 -0.205484 0.00125 368
1 0.109836 0.0897422 0.00129413 -0.0051908 0.0228374 0.192429 0.00125 369
1 0.0499111 0.261606 0.00168426 0.0366505 0.0229294 0.0958108 0.00125 370
1 0.0758697 0.151707 0.00165103 -0.0180913 -0.0343621 0.20175 0.00125 371
1 0.235858 0.0843139 0.00145686 -0.0164831 0.00436073 0.161999 0.00125 372
1 0.0885266 0.161944 0.00229444 -0.0661815 -0.0562784 -0.0318499 0.00125 373
1 0.133883 0.226518 0.00152077 -0.0429151 0.03716 0.143593 0.00125 374
1 0.1647 0.200195 0.00150557 -0.0369734 -0.0123051 -0.256574 0.00125 375
1 0.154651 0.30562 0.0022032 -0.0544179 -0.0484655 -0.0538816 0.00125 376
1 0.13335 0.0929435 0.00137181 0.0172824 -0.00110759 -0.0948811 0.00125 377
1 0.153042 0.259798 0.00145473 0.0119061 -0.0123297 -0.236209 0.00125 378
1 0.366282 0.250207 0.00155487 0.00545907 -0.0311906 -0.233512 0.00125 379
1 0.130577 0.0644321 0.00154746 0.0146062 -0.0144351 -0.0458998 0.00125 380
1 0.270477 0.190898 0.00146905 0.0508186 0.0233425 0.206449 0.00125 381
1 0.153405 0.353358 0.00132373 -0.0179519 0.0158537 -0.203596 0.00125 382
1 0.138712 0.317634 0.00125205 -0.0200778 0.00206733 0.203771 0.00125 383
1 0.358713 0.216115 0.00124744 0.035117 0.00741113 -0.227762 0.00125 384
1 0.155274 0.0236526 0.00124152 -0.000729251 0.0194057 0.184975 0.00125 385
1 0.358666 0.19878 0.00126023 -0.0137716 -0.0223527 -0.104561 0.00125 386
1 0.0555282 0.0827485 0.00173873 -0.00301922 0.0068334 0.116531 0.00125 387
1 0.0197515 0.0192624 0.00162507 0.0685979 0.0356461 -0.198083 0.00125 388
1 0.342507 0.104789 0.00131803 0.00351819 0.0446541 0.193545 0.00125 389
1 0.114087 0.365856 0.00149258 -0.0496944 0.0138751 -0.230009 0.00125 390
1 0.0730735 0.17836 0.00132738 -0.0132085 -0.000461068 0.231248 0.00125 391
1 0.0599607 0.123953 0.00127867 -0.0194374 0.0180374 0.267459 0.00125 392
1 0.154499 0.265246 0.00124422 -0.00682427 -0.000174875 0.0796417 0.00125 393
1 0.185693 0.228332 0.00148439 0.00360217 0.00931765 0.126459 0.00125 394
1 0.0963958 0.296929 0.0014399 -0.0189565 0.0184905 -0.174566 0.00125 395
1 0.319147 0.260427 0.00140353 -0.0181814 0.0144618 -0.217243 0.00125 396
1 0.217861 0.0846626 0.00167184 0.0228022 -0.00197102 0.0953174 0.00125 397
1 0.329886 0.0584235 0.0012882 -0.0176248 -0.0130033 -0.23259 0.00125 398
1 0.112777 0.265656 0.00174706 -0.00982045 0.00989419 0.0752954 0.00125 399