ITEM: TIMESTEP
1000000
ITEM: NUMBER OF ATOMS
10000
ITEM: BOX BOUNDS pp pp ff
0.0000000000000000e+00 5.7340326500000005e-01
0.0000000000000000e+00 5.7340326500000005e-01
-1.2500000000000001e-02 1.2500000000000001e-02
ITEM: ATOMS type x y z vx vy vz radius id
1 0.203862 0.355085 0.00141689 0.0205643 -0.019549 0.155742 0.00125 1
1 0.158212 0.546053 0.00135785 -0.0102734 0.00751447 -0.291876 0.00125 2
1 0.528779 0.280523 0.00148436 -0.003087 0.000295655 -0.238592 0.00125 3
1 0.161735 0.158641 0.00142138 0.00344856 0.00628587 0.147027 0.00125 4
1 0.0607281 0.267601 0.00212432 -0.0116908 -0.00192805 -0.202024 0.00125 5
1 0.504674 0.175856 0.0021398 0.00788594 0.00284851 -0.167146 0.00125 6
1 0.116846 0.232291 0.0017285 -0.000953566 0.00391669 0.10555 0.00125 7
1 0.230976 0.0187641 0.0013163 -0.000905769 0.00387469 -0.311198 0.00125 8
1 0.572413 0.507217 0.00144876 -0.0043697 -0.00107891 -0.238411 0.00125 9
1 0.416698 0.472247 0.00152738 -0.0170026 -0.00892947 -0.19473 0.00125 10
1 0.120243 0.0444376 0.0017635 -0.00222667 -0.0133637 0.122727 0.00125 11
1 0.265078 0.535087 0.00239441 -0.00458796 -0.0147135 -0.0483017 0.00125 12
1 0.185414 0.514637 0.00143334 -0.00321601 -0.0010847 -0.239588 0.00125 13
1 0.390267 0.0249379 0.00135081 -0.00851254 -9.17643e-05 -0.237342 0.00125 14
1 0.536797 0.518476 0.00147786 -0.00964159 6.02457e-05 -0.0493879 0.00125 15
1 0.48167 0.311268 0.00130423 0.0113133 0.00700735 0.0438952 0.00125 16
1 0.468675 0.560234 0.00126876 0.00761914 -0.0126478 -0.256819 0.00125 17
1 0.117728 0.448519 0.00176409 -0.000568912 0.0151782 0.116627 0.00125 18
1 0.0217556 0.0827889 0.00129904 0.00550389 -0.00931698 -0.23381 0.00125 19
1 0.201383 0.119685 0.00135903 0.00174644 0.00878637 -0.187772 0.00125 20
1 0.242999 0.207297 0.0015143 0.01618 0.0107165 0.151913 0.00125 21
1 0.170882 0.0205202 0.00202461 -0.00385597 -0.0192066 -0.222549 0.00125 22
1 0.0973117 0.391209 0.00142056 0.00449848 0.000907694 0.104634 0.00125 23
1 0.111596 0.365696 0.00129918 0.00591378 0.00509121 -0.234078 0.00125 24
1 0.346189 0.417553 0.00130027 -0.00180396 0.00246966 -0.224657 0.00125 25
1 0.25133 0.410424 0.00145857 0.00958516 0.0032459 -0.234576 0.00125 26
1 0.346403 0.5184 0.00193883 0.00353726 0.0110044 -0.200116 0.00125 27
1 0.234531 0.570699 0.0014969 0.00017323 0.000992326 0.0728746 0.00125 28
1 0.486579 0.256817 0.00132029 0.00497099 -0.000627185 0.159924 0.00125 29
1 0.500111 0.339223 0.00148569 0.0133017 0.00186104 0.102973 0.00125 30
1 0.488828 0.56786 0.00224641 0.0016981 -0.0124382 -0.173061 0.00125 31
1 0.099769 0.488149 0.00185606 0.0112202 -0.0153319 -0.210394 0.00125 32
1 0.251717 0.0701392 0.00164139 0.00695553 0.00592982 -0.0675196 0.00125 33
1 0.510617 0.212671 0.00147796 0.00458153 0.00249564 0.0786132 0.00125 34
1 0.551054 0.524824 0.0014245 -0.00548247 -0.000699732 0.168246 0.00125 35
1 0.318765 0.0585534 0.00145177 -0.0125389 0.0023333 -0.227769 0.00125 36
1 0.0232404 0.479523 0.00161047 0.00889712 -0.0104445 -0.232783 0.00125 37
1 0.33517 0.362829 0.00131559 -0.000598622 -0.00106033 0.17993 0.00125 38
1 0.525755 0.0733147 0.00159248 -0.00830572 -0.00373804 -0.233828 0.00125 39
1 0.265103 0.429927 0.00129167 -0.0120449 0.00801335 -0.232542 0.00125 40
1 0.429045 0.195469 0.00196414 -0.00125235 0.00503885 -0.0823095 0.00125 41
1 0.273157 0.391584 0.00213255 -0.00083596 0.00445765 -0.0604587 0.00125 42
1 0.057416 0.430177 0.00123485 0.0152758 -0.0128098 -0.163372 0.00125 43
1 0.552583 0.132536 0.00143873 0.00142979 -0.00262591 0.0984511 0.00125 44
1 0.329186 0.461054 0.00143672 -0.000166949 -0.000263732 0.139881 0.00125 45
1 0.339966 0.331432 0.00159106 -0.0233256 0.00700585 -0.233973 0.00125 46
1 0.444216 0.0652016 0.00176273 -0.00800574 -0.00619241 0.173487 0.00125 47
1 0.240735 0.378335 0.00168976 0.00322038 0.00699764 0.107704 0.00125 48
1 0.0987733 0.393898 0.00171506 0.0218608 -0.0023414 -0.224792 0.00125 49
1 0.305939 0.0712698 0.00175093 0.000856721 0.000644099 -0.215468 0.00125 50
1 0.125141 0.0432262 0.00205585 0.0187883 0.021354 -0.216147 0.00125 51
1 0.16702 0.262831 0.00129658 0.0182027 0.0292832 0.209517 0.00125 52
1 0.436137 0.170939 0.00139117 -0.0167145 -0.00924957 -0.238756 0.00125 53
1 0.368119 0.148347 0.00152688 0.00578892 0.00115712 0.11033 0.00125 54
1 0.313414 0.0796015 0.00233462 0.00997918 0.00542984 -0.117605 0.00125 55
1 0.29077 0.535697 0.00142211 -0.00934634 -0.00166227 -0.239598 0.00125 56
1 0.150425 0.0810324 0.00226236 -0.0484142 -0.0331012 -0.0603339 0.00125 57
1 0.503305 0.0732856 0.00196182 0.00940928 5.96629e-05 -0.0675326 0.00125 58
1 0.0339569 0.174958 0.00128236 -0.00484413 -0.000191566 0.205907 0.00125 59
1 0.416213 0.435562 0.00170423 -0.0320265 -0.00459062 -0.244881 0.00125 60
1 0.401697 0.0985311 0.00126283 0.00236632 -0.0195029 -0.232599 0.00125 61
1 0.360413 0.182433 0.00124633 0.00530532 -0.00911403 0.193379 0.00125 62
1 0.206481 0.0684909 0.00139036 -0.00544903 -0.00808692 0.17997 0.00125 63
1 0.0541977 0.243949 0.00122838 -0.00257152 0.0258005 0.172862 0.00125 64
1 0.335556 0.42773 0.00124422 -0.0041214 0.00278419 -0.221184 0.00125 65
1 0.492818 0.553026 0.00171285 0.00237513 0.0159698 -0.225523 0.00125 66
1 0.224524 0.492819 0.00126565 0.0105716 0.00158292 -0.231144 0.00125 67
1 0.471141 0.412304 0.00138893 -0.00570445 0.00850675 -0.200939 0.00125 68
1 0.289685 0.400945 0.00151797 0.00595685 0.00460365 -0.192688 0.00125 69
1 0.478129 0.0355209 0.00157029 -0.00551319 0.00431511 0.0819466 0.00125 70
1 0.4498 0.376758 0.00139091 0.00942266 0.00244618 -0.233552 0.00125 71
1 0.214059 0.0399968 0.00128607 -0.00484528 0.0048356 0.0199756 0.00125 72
1 0.338693 0.216416 0.00144387 -0.00860159 0.0343459 -0.192601 0.00125 73
1 0.539732 0.438422 0.00134505 -0.0101134 0.00102295 0.0640032 0.00125 74
1 0.094243 0.558307 0.00174637 -0.00381696 -0.00507545 0.172386 0.00125 75
1 0.220678 0.108153 0.001431 -0.00915815 0.00472667 0.218148 0.00125 76
1 0.109917 0.374695 0.00208497 -0.00307471 0.000975479 -0.20711 0.00125 77
1 0.0468341 0.294124 0.0014497 -0.000406712 -0.00726473 -0.197243 0.00125 78
1 0.373617 0.524621 0.00123461 -0.00768495 0.00660603 0.140488 0.00125 79
1 0.187869 0.0873179 0.00130432 0.017606 -0.0271044 0.201571 0.00125 80
1 0.279472 0.2446 0.00128707 0.0189064 -0.000455434 0.27468 0.00125 81
1 0.273407 0.44508 0.00151923 0.00539859 -0.0313995 -0.199907 0.00125 82
1 0.453408 0.491164 0.00134315 0.0088142 -0.00397347 -0.238028 0.00125 83
1 0.463702 0.195288 0.00143962 -0.00186209 -0.00864537 -0.239726 0.00125 84
1 0.455703 0.155169 0.00238579 -0.0224566 -0.00736093 -0.0417507 0.00125 85
1 0.286517 0.52543 0.00140087 0.00224839 0.0282594 0.149569 0.00125 86
1 0.0202221 0.395542 0.00152624 0.00860513 0.0100376 -0.176914 0.00125 87
1 0.175745 0.179301 0.00124886 -0.0234614 0.0150256 -0.279687 0.00125 88
1 0.285927 0.480705 0.00141281 -0.00085312 -0.00405743 -0.233815 0.00125 89
1 0.42611 0.181205 0.00126465 0.00671976 0.0107855 0.272283 0.00125 90
1 0.53991 0.166644 0.0015638 -0.00749506 -0.00591907 -0.229364 0.00125 91
1 0.55263 0.465687 0.00132144 -2.68056e-05 0.00549652 0.157305 0.00125 92
1 0.134395 0.0286672 0.00129491 0.00491106 0.0138582 0.0291505 0.00125 93
1 0.0482201 0.157805 0.00174407 0.00707326 0.00643987 0.179181 0.00125 94
1 0.11886 0.370425 0.00134668 0.0204606 -0.0040451 0.150227 0.00125 95
1 0.452245 0.447118 0.00139556 -0.00673756 -0.0121335 -0.239546 0.00125 96
1 0.34873 0.171537 0.00160937 -0.00306374 -0.00635106 0.0877601 0.00125 97
1 0.345087 0.0467227 0.00151529 0.00283946 0.00299562 0.11556 0.00125 98
1 0.516273 0.498197 0.00136622 -0.0277406 -0.0118777 0.184493 0.00125 99
1 0.421017 0.396619 0.00133795 0.0200726 0.0127322 0.190484 0.00125 100
1 0.132949 0.359635 0.00123019 -0.0155381 0.00202467 0.0450549 0.00125 101
1 0.498124 0.11331 0.00136227 0.00173867 -0.00217595 -0.198155 0.00125 102
1 0.419072 0.467132 0.00148453 0.00227579 0.00660483 -0.238951 0.00125 103
1 0.323873 0.0516399 0.00123084 0.0235844 -0.00214962 0.0593754 0.00125 104
1 0.281875 0.14695 0.00160068 -0.00383033 0.0104797 0.0922281 0.00125 105
1 0.00801706 0.0132332 0.00226918 -0.00232384 0.00276826 -0.0109651 0.00125 106
1 0.22073 0.493149 0.00185589 -0.00502953 -0.0152065 -0.246683 0.00125 107
1 0.222496 0.299426 0.00216261 -0.000473602 0.00872543 -0.157496 0.00125 108
1 0.560418 0.534759 0.00135002 0.00615429 0.0135057 -0.237347 0.00125 109
1 0.259884 0.496177 0.00226292 -0.00210376 0.001583 0.0208498 0.00125 110
1 0.141239 0.166652 0.00128567 0.0102754 0.00147575 0.0241093 0.00125 111
1 0.195917 0.310649 0.0014032 0.0165398 0.00982808 -0.238614 0.00125 112
1 0.237379 0.0351332 0.0019252 -0.0152829 0.00270972 -0.201245 0.00125 113
1 0.269572 0.166537 0.00151773 0.00434512 -0.0228903 0.113477 0.00125 114
1 0.235812 0.0868038 0.0012919 -0.0104648 -0.0140272 -0.195554 0.00125 115
1 0.387038 0.471461 0.00133148 -0.0129104 -0.00841689 -0.0116128 0.00125 116
1 0.119736 0.146444 0.00155242 -0.00215435 0.00222949 0.136526 0.00125 117
1 0.0550685 0.174413 0.00135763 -0.00319265 0.00848198 -0.237109 0.00125 118
1 0.290446 0.504291 0.0014881 -0.0174478 -0.000659941 -0.194414 0.00125 119
1 0.0212988 0.197779 0.00220408 0.013456 -0.000460468 -0.152948 0.00125 120
1 0.472395 0.537874 0.00127446 -0.0259991 0.00248506 0.209035 0.00125 121
1 0.0203352 0.452154 0.00152299 -0.027032 0.0791283 -0.248088 0.00125 122
1 0.111486 0.111139 0.0012525 -0.000841817 0.0126739 -0.230184 0.00125 123
1 0.419087 0.0443474 0.00141931 0.00217864 -0.00270215 0.218545 0.00125 124
1 0.556873 0.0209954 0.00188864 0.00248479 -0.0108031 -0.0462385 0.00125 125
1 0.0909821 0.0814047 0.00207055 0.0134558 0.0578997 -0.0241706 0.00125 126
1 0.458159 0.308304 0.00142617 -0.00984978 -0.0107796 0.143724 0.00125 127
1 0.185826 0.426597 0.001642 0.0041658 0.015684 0.0914419 0.00125 128
1 0.091644 0.390484 0.00140705 -0.000225399 -0.00241418 0.219376 0.00125 129
1 0.367108 0.551822 0.00184702 -0.000584991 -0.00902897 -0.0748762 0.00125 130
1 0.566246 0.475919 0.00194823 0.00611952 -0.0130266 -0.189506 0.00125 131
1 0.19164 0.534554 0.00142716 0.0124844 -0.00595342 -0.196579 0.00125 132
1 0.0265464 0.37885 0.00144937 -0.0142436 0.00826405 0.136737 0.00125 133
1 0.0261024 0.207861 0.00144445 -0.00540376 -0.0044884 -0.227277 0.00125 134
1 0.488964 0.0760663 0.00205707 0.0042985 -0.0110532 -0.172657 0.00125 135
1 0.470534 0.168907 0.00125145 0.0208404 0.0172899 -0.199355 0.00125 136
1 0.261988 0.0661887 0.00139472 0.00599243 -0.00860641 0.181656 0.00125 137
1 0.129373 0.00266662 0.00198557 0.00289838 0.00792657 -0.0665212 0.00125 138
1 0.232272 0.395531 0.00226914 0.00494635 0.00644561 -0.0533741 0.00125 139
1 0.298563 0.370816 0.00145869 0.0152471 -0.00686291 0.129255 0.00125 140
1 0.274405 0.200772 0.0014363 -0.00374002 0.00558936 -0.235967 0.00125 141
1 0.106907 0.453408 0.00197769 -0.0106709 -0.00614334 -0.0662662 0.00125 142
1 0.0250163 0.564858 0.00131038 0.00309889 0.00134135 0.162918 0.00125 143
1 0.285011 0.330956 0.00144589 0.011314 0.0385551 -0.236458 0.00125 144
1 0.209603 0.561431 0.00139855 0.0232797 0.019315 0.262199 0.00125 145
1 0.504843 0.456172 0.00149522 0.00269507 0.00102221 0.113774 0.00125 146
1 0.253396 0.382676 0.00135461 -0.00256284 0.00213413 -0.308451 0.00125 147
1 0.0677294 0.345134 0.001259 8.47227e-05 0.00711482 -0.0350266 0.00125 148
1 0.170886 0.300407 0.00123054 0.00143511 0.00464532 -0.120844 0.00125 149
1 0.384136 0.130471 0.00135093 -0.00496929 -0.0201743 0.222962 0.00125 150
1 0.126415 0.160555 0.00244922 -0.0231714 -0.00452839 -0.0379503 0.00125 151
1 0.308013 0.214955 0.00147488 -0.00602079 0.00316362 -0.240457 0.00125 152
1 0.43744 0.433187 0.0013009 0.00728738 0.00163283 0.253567 0.00125 153
1 0.546116 0.116283 0.0018095 0.0115514 0.000718771 -0.165059 0.00125 154
1 0.273205 0.29782 0.00156104 -0.00558202 0.00524231 0.0592409 0.00125 155
1 0.444673 0.135625 0.00127239 0.00622909 0.00187811 -0.0135929 0.00125 156
1 0.0839661 0.0390571 0.00134467 0.0748882 0.0238545 0.0923996 0.00125 157
1 0.486429 0.504397 0.00158705 0.00834559 -0.0153035 0.094765 0.00125 158
1 0.417332 0.164308 0.00128701 -0.0283458 -0.0127789 -0.277034 0.00125 159
1 0.340544 0.261574 0.00143034 -2.35743e-05 -0.00782671 -0.239723 0.00125 160
1 0.571555 0.264808 0.00153504 0.00179345 -0.00284662 0.118374 0.00125 161
1 0.362573 0.475533 0.00233284 0.043762 0.00439554 -0.043973 0.00125 162
1 0.133983 0.0703074 0.00201367 0.000405751 -0.00243881 -0.0517445 0.00125 163
1 0.23821 0.342609 0.00154038 -0.0106381 0.00264632 -0.168074 0.00125 164
1 0.234874 0.178219 0.00168404 0.013192 -0.00197282 0.0582221 0.00125 165
1 0.120454 0.393151 0.00129014 -0.0133986 0.00914173 -0.232397 0.00125 166
1 0.514078 0.438208 0.00161238 -0.0103131 0.00196425 -0.17894 0.00125 167
1 0.219108 0.126095 0.00225537 -0.000155597 0.00787049 -0.0533197 0.00125 168
1 0.509302 0.156467 0.00141507 -0.00201472 -0.00657059 0.144017 0.00125 169
1 0.135495 0.367393 0.00134342 0.00408397 -0.0140834 -0.236664 0.00125 170
1 0.421774 0.569326 0.00175261 -0.00372155 -0.00906404 0.175922 0.00125 171
1 0.486428 0.562976 0.00247674 -0.0107366 0.00889677 -0.0357219 0.00125 172
1 0.054969 0.235112 0.00164947 -0.00895068 0.0169521 0.210669 0.00125 173
1 0.514659 0.403213 0.00155276 0.00470913 -0.00328405 -0.0957521 0.00125 174
1 0.158062 0.0724536 0.00220131 0.0104732 0.00234159 -0.0463702 0.00125 175
1 0.276234 0.300475 0.00161051 -0.00362123 -0.00104396 -0.229185 0.00125 176
1 0.392942 0.0967989 0.00158618 -0.00678724 -0.00334356 -0.179868 0.00125 177
1 0.377195 0.0455237 0.00140481 -0.00837007 -0.0173666 -0.1986 0.00125 178
1 0.189119 0.228408 0.00168891 0.00563667 0.0153496 -0.085462 0.00125 179
1 0.118842 0.0815121 0.00196846 -0.000840803 0.00468733 -0.197834 0.00125 180
1 0.282061 0.167066 0.00135072 -0.0118268 0.00129799 0.186927 0.00125 181
1 0.457765 0.41835 0.00159326 0.000334712 0.00705996 0.0583147 0.00125 182
1 0.280931 0.00176324 0.00210976 0.00642385 -0.00454776 -0.166822 0.00125 183
1 0.302126 0.0405059 0.00166829 0.0134921 -0.0349763 0.0580154 0.00125 184
1 0.469815 0.249633 0.00196368 -0.0142794 -0.000987014 -0.206061 0.00125 185
1 0.522885 0.504194 0.00158676 0.00801164 0.00261063 -0.177281 0.00125 186
1 0.378374 0.305704 0.00138979 0.00885239 0.0150291 0.155186 0.00125 187
1 0.0832635 0.298313 0.00228967 -0.0133984 -0.00255659 -0.0524486 0.00125 188
1 0.383234 0.0383135 0.00239105 -0.00520212 0.00180277 -0.0977924 0.00125 189
1 0.0661556 0.371489 0.00128588 0.0141534 -0.0118193 0.18678 0.00125 190
1 0.502216 0.512436 0.00168934 0.00194581 0.00261133 0.106168 0.00125 191
1 0.371256 0.234739 0.00191427 -0.00137616 -0.0148405 -0.0646156 0.00125 192
1 0.123474 0.382868 0.00123071 -0.00593384 0.0106284 -0.0302844 0.00125 193
1 0.244585 0.428135 0.00170506 0.00256556 0.0093961 -0.0963419 0.00125 194
1 0.413036 0.305254 0.00146573 -0.00966323 0.0159546 -0.197902 0.00125 195
1 0.274298 0.180041 0.00196089 0.00662551 0.0124178 -0.206505 0.00125 196
1 0.361028 0.27096 0.00192505 -0.00103547 -0.00649917 -0.0664589 0.00125 197
1 0.220794 0.0677339 0.00128463 0.00972609 0.00247459 -0.247532 0.00125 198
1 0.411678 0.295252 0.00123088 -0.0150927 -0.0263125 0.0814052 0.00125 199
1 0.048586 0.395529 0.00145394 -0.000614964 -0.00784386 0.221362 0.00125 200
1 0.15596 0.131919 0.00142622 0.00570531 0.00613593 0.219268 0.00125 201
1 0.498954 0.10689 0.00140648 0.0067471 -0.019514 -0.238789 0.00125 202
1 0.526795 0.349124 0.00229302 0.000658426 0.00567816 -0.0475846 0.00125 203
1 0.269502 0.128278 0.00179807 -0.0186646 0.00173908 0.15033 0.00125 204
1 0.00675719 0.276214 0.00129895 0.0101872 0.00196121 -0.224511 0.00125 205
1 0.531841 0.036705 0.00166674 0.0171234 -0.0102874 -0.225314 0.00125 206
1 0.31703 0.297592 0.00133378 -0.0166499 -0.00622011 0.192352 0.00125 207
1 0.404883 0.572268 0.00150081 -0.0111582 0.00362642 -0.193189 0.00125 208
1 0.113142 0.547911 0.00175403 0.0247209 -0.0202301 -0.198591 0.00125 209
1 0.513202 0.430797 0.00144035 0.0174365 0.0103074 -0.246229 0.00125 210
1 0.441417 0.509949 0.001837 -0.00144377 -0.00229953 -0.0815403 0.00125 211
1 0.393047 0.227991 0.00164595 -0.00845336 0.00770785 -0.0910313 0.00125 212
1 0.344186 0.520754 0.00123376 -0.00526997 -0.00028183 -0.152086 0.00125 213
1 0.330252 0.559628 0.0013425 5.30827e-05 -0.00186375 0.188277 0.00125 214
1 0.363119 0.239243 0.00239883 -0.00609982 -0.0156129 0.0300723 0.00125 215
1 0.208566 0.165356 0.00129448 0.00786749 0.0216773 -0.237998 0.00125 216
1 0.163235 0.374612 0.00136625 0.0127093 0.0058684 0.25477 0.00125 217
1 0.02205 0.535323 0.00138183 -0.0058538 0.0117767 -0.22514 0.00125 218
1 0.0873126 0.15733 0.0015534 0.0199024 0.0215624 -0.168775 0.00125 219
1 0.482608 0.563799 0.00156483 -0.0304322 0.0265163 0.089397 0.00125 220
1 0.159418 0.0314369 0.00163491 0.00491663 -0.0024062 -0.180113 0.00125 221
1 0.012548 0.100119 0.00124599 0.000336067 0.00037637 0.169337 0.00125 222
1 0.0833315 0.305443 0.00130588 0.00404739 0.00568999 -0.233892 0.00125 223
1 0.0736034 0.254886 0.00199471 -0.00071514 0.00631391 -0.0386132 0.00125 224
1 0.317557 0.286102 0.00136453 0.00278607 -0.0030462 0.189379 0.00125 225
1 0.543058 0.436678 0.00192581 0.00781011 -0.00657706 -0.0812442 0.00125 226
1 0.0343544 0.347212 0.00127446 -0.0151407 -0.0124667 -0.232126 0.00125 227
1 0.145025 0.157043 0.00126773 -0.0151816 -0.00429013 0.208403 0.00125 228
1 0.13873 0.531622 0.0019978 -0.0110629 -0.00982952 -0.226969 0.00125 229
1 0.0371171 0.223664 0.00142431 0.0207709 0.00228339 0.108036 0.00125 230
1 0.520099 0.477926 0.00152316 0.00816136 0.0148221 -0.237949 0.00125 231
1 0.46846 0.386358 0.00155372 0.0140738 0.0035558 0.0550166 0.00125 232
1 0.350687 0.0144094 0.00207383 -0.00410227 0.00545741 -0.188711 0.00125 233
1 0.182999 0.11231 0.00185974 0.000121429 -0.00233141 -0.209719 0.00125 234
1 0.0873539 0.311674 0.00125597 -0.00272404 -0.00680035 -0.227504 0.00125 235
1 0.153513 0.300153 0.0014755 -0.00330599 -0.0192195 -0.239169 0.00125 236
1 0.529176 0.514946 0.00228193 -0.000566829 0.00260556 -0.0474458 0.00125 237
1 0.13692 0.435115 0.00147384 -0.022612 0.0100535 0.207133 0.00125 238
1 0.382797 0.218664 0.00180222 -0.00356338 -0.0226623 0.145681 0.00125 239
1 0.313212 0.128064 0.00228373 -0.00262855 -0.0176942 -0.134287 0.00125 240
1 0.360809 0.456601 0.00186604 0.000821136 -0.00570062 -0.152606 0.00125 241
1 0.452998 0.362416 0.00164051 -0.000508875 -0.000453997 -0.225389 0.00125 242
1 0.479712 0.472744 0.00135958 -0.000279943 -0.011094 -0.0970522 0.00125 243
1 0.33059 0.234332 0.001238 -0.00433177 -0.00751937 -0.190483 0.00125 244
1 0.30446 0.231104 0.00165658 -0.00561137 -0.00538701 0.0910851 0.00125 245
1 0.459796 0.0140023 0.00244747 0.00103672 0.00789053 -0.0586621 0.00125 246
1 0.374584 0.286314 0.00150958 -0.0226387 0.0145063 0.221537 0.00125 247
1 0.546758 0.201323 0.00132087 -0.0124971 -0.00415988 0.1954 0.00125 248
1 0.118949 0.39923 0.00134427 -0.0120043 0.0186627 -0.237674 0.00125 249
1 0.098883 0.384786 0.00129207 -0.0140389 0.0292469 0.196624 0.00125 250
1 0.24415 0.486008 0.00178822 0.011705 -0.0115959 -0.218026 0.00125 251
1 0.538751 0.321369 0.00244419 -0.000985404 0.00247425 -0.0175965 0.00125 252
1 0.442612 0.032238 0.00199126 0.00178532 0.0106347 -0.0782801 0.00125 253
1 0.311756 0.246071 0.00175709 -0.000702365 0.0231226 -0.0817317 0.00125 254
1 0.203424 0.208796 0.00140116 -0.0101279 0.00261076 0.216234 0.00125 255
1 0.513784 0.0442649 0.00148303 -0.00361272 -0.0160935 0.107315 0.00125 256
1 0.483359 0.278605 0.00130563 0.0011415 -0.00497182 -0.240381 0.00125 257
1 0.191632 0.186243 0.0018872 0.000596017 0.0115756 -0.194032 0.00125 258
1 0.0262152 0.127563 0.0012934 0.028836 0.0296825 0.157522 0.00125 259
1 0.523212 0.149581 0.00156012 -0.00726073 -0.00300541 -0.190787 0.00125 260
1 0.184198 0.290889 0.00221557 -2.76926e-05 0.0130665 -0.0317168 0.00125 261
1 0.30077 0.408187 0.00197589 0.000552203 0.00941244 -0.230426 0.00125 262
1 0.286361 0.318642 0.0016101 0.00294809 -0.00212614 0.0814149 0.00125 263
1 0.0684455 0.333969 0.0019991 0.00637677 -0.0160919 -0.0660663 0.00125 264
1 0.226501 0.43355 0.00171323 -0.0114618 -0.00755437 -0.226332 0.00125 265
1 0.0158588 0.19754 0.00143567 0.00162883 0.0133174 -0.239458 0.00125 266
1 0.0322414 0.435223 0.00187937 0.00797279 0.00182087 -0.202961 0.00125 267
1 0.0992527 0.144765 0.00225873 -0.00195575 -0.0259359 0.0199042 0.00125 268
1 0.416564 0.0157334 0.00137349 -0.00505411 0.00885942 -0.202745 0.00125 269
1 0.286331 0.287209 0.00162448 -0.00704763 -0.00089464 -0.0436676 0.00125 270
1 0.130878 0.244052 0.0013166 -0.00297378 -0.0273775 -0.234498 0.00125 271
1 0.017554 0.374315 0.0024893 0.016129 -0.00541074 0.0339417 0.00125 272
1 0.495824 0.423416 0.00127024 0.00902686 0.0077041 -0.192759 0.00125 273
1 0.333686 0.114144 0.00137631 0.0300612 0.0131944 -0.240258 0.00125 274
1 0.00932882 0.420999 0.00158906 -0.00203884 -0.00171049 0.140035 0.00125 275
1 0.0331406 0.00950938 0.00164615 -0.00211948 -0.014909 0.0926073 0.00125 276
1 0.131632 0.373344 0.00128183 0.00874914 0.00212433 -0.287985 0.00125 277
1 0.466414 0.343861 0.00127662 -0.0093159 -0.000435597 0.192283 0.00125 278
1 0.256453 0.117479 0.00138675 -0.00411723 -0.0183093 -0.23908 0.00125 279
1 0.178981 0.0120676 0.00134136 0.00824293 0.0166238 0.184331 0.00125 280
1 0.351023 0.0717848 0.00160516 0.00568319 0.0157362 -0.175907 0.00125 281
1 0.43723 0.0855239 0.00137463 0.00436984 -0.0091901 -0.238203 0.00125 282
1 0.141312 0.149476 0.00144543 -0.0121556 -0.014957 0.213172 0.00125 283
1 0.270343 0.572817 0.00152846 -0.0186071 -0.00373312 0.0558731 0.00125 284
1 0.034089 0.53984 0.00145568 0.0245043 0.00479226 0.220588 0.00125 285
1 0.105572 0.571894 0.00128486 -0.00069812 0.00148845 -0.232139 0.00125 286
1 0.258395 0.37812 0.00230158 -0.0101193 0.0116809 -0.0469402 0.00125 287
1 0.0646617 0.438413 0.00129733 -0.00447634 -0.00388846 -0.232906 0.00125 288
1 0.375953 0.0744479 0.00173546 -0.0205627 0.0231006 -0.21958 0.00125 289
1 0.3654 0.482619 0.00143318 0.0169596 -0.0204628 -0.0619206 0.00125 290
1 0.430494 0.461527 0.00159755 0.00248071 -0.0107208 -0.234073 0.00125 291
1 0.49258 0.397863 0.00130799 -0.00396159 0.0324215 -0.240168 0.00125 292
1 0.0849218 0.118896 0.00177343 0.00082595 -0.00381199 -0.0793842 0.00125 293
1 0.107557 0.535873 0.00176678 0.0211486 -0.0090744 -0.232978 0.00125 294
1 0.0747419 0.192665 0.00178157 0.0101461 -0.0015576 0.164255 0.00125 295
1 0.310234 0.556072 0.00126175 -0.00942631 -0.0185315 -0.233723 0.00125 296
1 0.136664 0.170285 0.00199924 -0.00684426 0.0179206 -0.186984 0.00125 297
1 0.388748 0.220958 0.00133444 -0.00995779 0.0225937 -0.238226 0.00125 298
1 0.119396 0.0587607 0.00134689 0.030132 0.00617098 -0.0832648 0.00125 299
1 0.403721 0.142069 0.0015032 0.0027431 -0.0012789 -0.171033 0.00125 300
1 0.362288 0.353976 0.00210517 -0.00297869 0.011102 -0.0624846 0.00125 301
1 0.566065 0.393759 0.00185997 -0.00333525 0.0138564 -0.211948 0.00125 302
1 0.320321 0.396841 0.00122639 0.000472478 -0.000562472 -0.151004 0.00125 303
1 0.433853 0.270348 0.0022585 -0.0142343 0.00267802 -0.0458805 0.00125 304
1 0.208764 0.192875 0.0017592 -0.0126511 0.00624773 0.127634 0.00125 305
1 0.0555345 0.349247 0.00159718 -0.0148124 0.0198604 0.0949259 0.00125 306
1 0.201786 0.296749 0.00142275 0.00621072 -0.000721307 0.142714 0.00125 307
1 0.127257 0.116689 0.00131757 -0.0029947 -0.00330056 0.196227 0.00125 308
1 0.128722 0.0827992 0.00153842 -0.00535678 -0.012318 0.101073 0.00125 309
1 0.386021 0.545219 0.00228909 0.0204292 0.0173529 -0.130639 0.00125 310
1 0.299797 0.179445 0.00155949 0.0217254 -0.0121699 -0.072684 0.00125 311
1 0.414515 0.352323 0.00125016 0.000429478 -0.000489736 0.0010803 0.00125 312
1 0.374231 0.149738 0.00124742 -0.000872568 0.0215989 -0.228187 0.00125 313
1 0.0346832 0.488629 0.00163009 0.00363284 0.000976313 -0.171073 0.00125 314
1 0.0971216 0.541067 0.00200815 -0.0367986 0.0177649 -0.189389 0.00125 315
1 0.294065 0.230504 0.00130284 -0.00263525 0.0158952 -0.230462 0.00125 316
1 0.282643 0.441722 0.00123107 -0.00401725 -0.00264993 0.162519 0.00125 317
1 0.201028 0.531806 0.0014024 0.008479 0.00328553 0.180828 0.00125 318
1 0.543607 0.558736 0.00127424 0.00886157 0.00226943 0.240176 0.00125 319
1 0.104516 0.233371 0.00187672 -0.000163656 0.00302135 -0.073062 0.00125 320
1 0.38128 0.41162 0.00179668 0.00139386 0.0114512 -0.0586022 0.00125 321
1 0.461224 0.446625 0.00170356 -0.0136649 -0.0180948 -0.0851193 0.00125 322
1 0.493655 0.0268083 0.00127084 0.00413636 0.005833 -0.230117 0.00125 323
1 0.274885 0.213336 0.00127785 -0.0291946 0.00694402 0.192351 0.00125 324
1 0.438952 0.250709 0.0015639 -7.68371e-05 -0.00686333 0.148657 0.00125 325
1 0.064564 0.162858 0.00125193 -0.0553393 0.00519075 -0.0397713 0.00125 326
1 0.328433 0.230211 0.00213524 -0.0113587 -0.0189275 -0.0716286 0.00125 327
1 0.463986 0.339689 0.00137216 0.0286758 0.0168715 -0.228751 0.00125 328
1 0.438901 0.556002 0.00151486 0.00874728 -0.0122446 -0.238144 0.00125 329
1 0.0908363 0.0249174 0.00143119 -0.0186836 0.00833058 -0.23143 0.00125 330
1 0.135138 0.479491 0.00149159 0.00949612 -0.00673844 0.120358 0.00125 331
1 0.432366 0.33522 0.00175689 0.0188926 0.00294497 -0.0618989 0.00125 332
1 0.527859 0.392092 0.00157274 -0.00262758 -0.00196833 -0.184218 0.00125 333
1 0.194786 0.505717 0.00140329 0.011104 0.0202432 -0.182194 0.00125 334
1 0.0309067 0.380345 0.00156194 0.0342801 -0.0166091 -0.236062 0.00125 335
1 0.329051 0.272091 0.00142897 0.0141778 -0.0100686 0.138778 0.00125 336
1 0.0454177 0.520613 0.0013841 -0.00440001 0.00361383 -0.111704 0.00125 337
1 0.407336 0.554964 0.0012548 0.0258637 -0.020809 -0.229866 0.00125 338
1 0.399758 0.256683 0.00176068 -0.0001896 0.00330026 -0.223618 0.00125 339
1 0.0380778 0.277788 0.00146422 -0.00554625 -0.0295762 -0.0936297 0.00125 340
1 0.256675 0.255 0.00144293 0.0271339 -0.0128357 -0.239467 0.00125 341
1 0.337816 0.0542273 0.00135492 0.00719725 0.00504059 0.186755 0.00125 342
1 0.015088 0.131445 0.00134497 -0.00459718 -0.00524025 0.187518 0.00125 343
1 0.200213 0.0134484 0.0016261 -0.0116775 0.0236117 -0.0931073 0.00125 344
1 0.0390133 0.262993 0.00227428 0.0165142 -0.00546784 -0.0486519 0.00125 345
1 0.319911 0.0643671 0.0022616 -0.0157416 0.0128796 -0.135845 0.00125 346
1 0.184214 0.466593 0.00155524 0.00591737 -0.0183741 0.230606 0.00125 347
1 0.0519047 0.22442 0.00133229 -0.00154765 0.012567 -0.235491 0.00125 348
1 0.173349 0.459175 0.00199591 -0.00102052 0.017953 -0.0597838 0.00125 349
1 0.0905447 0.369318 0.00147912 -0.00734205 0.0117226 -0.048615 0.00125 350
1 0.106401 0.411956 0.00196299 -0.00408601 -0.00371898 -0.00495117 0.00125 351
1 0.525311 0.226757 0.00140108 0.0123854 0.017107 -0.245106 0.00125 352
1 0.387544 0.273504 0.0018633 0.00411358 -0.00213733 -0.158503 0.00125 353
1 0.384052 0.211084 0.00177985 -0.00485804 0.00415516 -0.218766 0.00125 354
1 0.384031 0.409981 0.0014623 0.00686208 0.00302065 -0.264743 0.00125 355
1 0.554706 0.217308 0.00152454 -0.0146479 0.0179105 0.0611924 0.00125 356
1 0.424491 0.446179 0.00130536 -0.00718468 -0.00155949 0.183119 0.00125 357
1 0.0980961 0.213915 0.00136395 -0.00941299 -0.000222094 0.180975 0.00125 358
1 0.235007 0.0177867 0.00125632 -0.00140922 -0.0065243 0.167633 0.00125 359
1 0.507481 0.428451 0.00136682 0.025165 -0.0462452 -0.217543 0.00125 360
1 0.0421542 0.154695 0.00131581 0.0297488 0.0169173 -0.23641 0.00125 361
1 0.447053 0.161502 0.00128135 -0.00429945 -0.00330665 0.18698 0.00125 362
1 0.130603 0.40504 0.00223447 0.00934976 -0.0136364 -0.0352273 0.00125 363
1 0.123184 0.405652 0.00156796 -0.00136146 0.00118687 0.136199 0.00125 364
1 0.0467782 0.20172 0.00191796 0.00352271 0.00426125 -0.206001 0.00125 365
1 0.241053 0.0947857 0.00188512 -0.0158088 0.000478744 -0.0811606 0.00125 366
1 0.531232 0.206013 0.00128849 0.0155203 -0.0131924 -0.230261 0.00125 367
1 0.25669 0.193176 0.00228847 -0.00151664 -0.00170053 -0.132169 0.00125 368
1 0.0167913 0.0191868 0.00186698 -0.00774295 0.0095783 -0.0305763 0.00125 369
1 0.312992 0.117599 0.00159062 0.00189463 0.00416685 -0.177668 0.00125 370
1 0.23138 0.240446 0.00159672 0.00958457 0.0150277 -0.226933 0.00125 371
1 0.419468 0.489967 0.00127624 -0.00464447 0.00281461 -0.233213 0.00125 372
1 0.36677 0.158372 0.00163809 0.00792118 -0.00416597 -0.231823 0.00125 373
1 0.565574 0.352953 0.00132698 -0.0211387 -0.00615567 0.173629 0.00125 374
1 0.16062 0.453608 0.00174296 0.0062687 0.0115916 -0.202571 0.00125 375
1 0.538857 0.399085 0.00130033 -0.00527582 0.0149888 0.00443831 0.00125 376
1 0.519137 0.236965 0.00126889 0.0107523 -0.00904741 0.192128 0.00125 377
1 0.376261 0.080807 0.00169921 -0.00612607 -0.00433775 0.0998453 0.00125 378
1 0.134395 0.188218 0.0015189 -0.00341568 0.00230706 0.137842 0.00125 379
1 0.297109 0.40964 0.00141669 -0.00851825 -0.00255466 -0.193453 0.00125 380
1 0.179655 0.413742 0.00159996 0.009932 0.00493429 -0.164438 0.00125 381
1 0.104427 0.0151755 0.00150401 -0.00078546 0.00300459 0.115525 0.00125 382
1 0.374643 0.211814 0.00141472 0.00978274 0.00842707 0.141351 0.00125 383
1 0.349969 0.218134 0.0013034 -0.0428193 -0.0093024 0.19551 0.00125 384
1 0.554486 0.422367 0.00149658 0.00199653 -0.00294573 0.117297 0.00125 385
1 0.37233 0.279246 0.00153379 -5.21245e-05 0.00373883 -0.177238 0.00125 386
1 0.465314 0.474958 0.00159365 0.00635934 -0.0168873 0.140936 0.00125 387
1 0.454475 0.382662 0.00126961 -0.00848514 0.00956268 -0.0159136 0.00125 388
1 0.495258 0.283608 0.0015089 -0.0102095 -0.00680649 0.0694219 0.00125 389
1 0.335545 0.258602 0.00130831 -0.0103035 -0.00694134 -0.233997 0.00125 390
1 0.372715 0.454431 0.00219602 -0.00284271 -0.000887795 -0.0535843 0.00125 391
1 0.046755 0.283103 0.00128065 -0.00727739 -1.85329e-05 -0.278374 0.00125 392
1 0.325509 0.00571993 0.00181102 -0.00376042 0.00416505 0.142726 0.00125 393
1 0.552765 0.143822 0.00130294 0.0044127 -0.0389475 -0.233008 0.00125 394
1 0.560845 0.180641 0.00130821 -0.0147955 0.0063196 0.205575 0.00125 395
1 0.197093 0.386898 0.00203862 0.00173053 0.00933248 -0.194565 0.00125 396
1 0.229133 0.144536 0.00137825 0.0132273 -0.00661723 0.22391 0.00125 397