ITEM: TIMESTEP
1000000
ITEM: NUMBER OF ATOMS
10000
ITEM: BOX BOUNDS pp pp ff
0.0000000000000000e+00 3.4514736499999998e-01
0.0000000000000000e+00 3.4514736499999998e-01
-1.2500000000000001e-02 1.2500000000000001e-02
ITEM: ATOMS type x y z vx vy vz radius id
1 0.132768 0.017341 0.00134356 0.0181372 0.0128944 -0.230896 0.00125 1
1 0.0563857 0.10884 0.00161807 0.0361846 0.00265582 0.185696 0.00125 2
1 0.177378 0.0462937 0.00122919 -0.0475038 -0.0242672 -0.0200626 0.00125 3
1 0.114861 0.0785872 0.00234285 -0.00356584 0.0128085 -0.115329 0.00125 4
1 0.253035 0.234983 0.0017579 -0.00819391 0.0676416 -0.215136 0.00125 5
1 0.33311 0.124639 0.00128924 0.0390407 0.0587593 -0.234737 0.00125 6
1 0.196328 0.078412 0.00157802 -0.0103653 0.011039 -0.221969 0.00125 7
1 0.0335844 0.308523 0.00143959 -0.0189232 0.0134092 -0.197062 0.00125 8
1 0.242087 0.0277828 0.0012999 -0.00979139 -0.0291302 0.213303 0.00125 9
1 0.0575529 0.268656 0.00200365 -0.00454577 0.0150446 -0.0779281 0.00125 10
1 0.131025 0.288936 0.00188818 -0.0455323 0.00691861 -0.098533 0.00125 11
1 0.259747 0.138958 0.00157246 0.00482055 0.0205303 0.13752 0.00125 12
1 0.199679 0.325319 0.00123608 -0.0050221 0.00865285 0.237719 0.00125 13
1 0.267682 0.255209 0.00137792 -0.0304481 0.00934016 0.233383 0.00125 14
1 0.167808 0.24675 0.0012468 0.0169009 -0.01851 0.180993 0.00125 15
1 0.070953 0.0380858 0.00147281 0.0289054 0.0208659 0.211022 0.00125 16
1 0.0140848 0.0835489 0.00196038 0.00409146 0.00787687 -0.0717156 0.00125 17
1 0.32149 0.29277 0.00152237 0.0104782 0.00971361 -0.222156 0.00125 18
1 0.0506139 0.254385 0.00151749 -0.0553892 0.0192448 -0.131589 0.00125 19
1 0.24504 0.300894 0.00166775 -0.0355041 0.0133496 -0.248837 0.00125 20
1 0.147452 0.192008 0.00139688 0.035106 -0.0293873 -0.241694 0.00125 21
1 0.113174 0.129802 0.0022166 -0.0716144 0.0751732 -0.0982347 0.00125 22
1 0.010656 0.0177785 0.00127608 0.00788531 -0.00669396 0.217681 0.00125 23
1 0.2783 0.0822208 0.00158557 0.0467777 -0.0364115 0.150355 0.00125 24
1 0.308473 0.173799 0.00147696 -0.0177327 0.00361589 -0.0689376 0.00125 25
1 0.284467 0.165272 0.00138635 -0.00410786 0.0054205 -0.220491 0.00125 26
1 0.156325 0.318379 0.00137346 -0.00910796 -0.00373218 -0.301219 0.00125 27
1 0.246443 0.00248467 0.00145207 0.0489664 -0.0549215 -0.13203 0.00125 28
1 0.201001 0.167101 0.00141005 0.00749364 -0.00488218 -0.243427 0.00125 29
1 0.132318 0.17877 0.00138942 0.0123342 0.0177033 0.13706 0.00125 30
1 0.197847 0.197072 0.00154624 0.000171204 0.0249471 -0.231296 0.00125 31
1 0.0837455 0.251872 0.00124167 -0.00870697 -0.00368164 0.195824 0.00125 32
1 0.298024 0.11153 0.00137367 0.0198859 -0.000465258 -0.239915 0.00125 33
1 0.311046 0.21197 0.00169798 0.0403002 0.00470781 -0.096838 0.00125 34
1 0.276253 0.295799 0.00159178 0.0347009 -0.00133439 -0.239863 0.00125 35
1 0.0579321 0.156829 0.00150906 -0.0241415 0.0100519 0.115144 0.00125 36
1 0.0899594 0.286277 0.00168562 -0.00865147 0.00222457 0.0884114 0.00125 37
1 0.274654 0.15542 0.00157837 -0.0011228 0.00626457 -0.192966 0.00125 38
1 0.0884735 0.0687085 0.00123529 0.0268375 0.0136797 -0.234994 0.00125 39
1 0.208616 0.164933 0.00162044 -0.0210961 -0.00870606 -0.223806 0.00125 40
1 0.229642 0.240835 0.00141565 -0.0043828 -0.00646081 -0.206686 0.00125 41
1 0.108611 0.287896 0.00130569 0.0118351 0.0326779 -0.241281 0.00125 42
1 0.227172 0.294149 0.00205688 -0.061577 0.00718711 -0.192534 0.00125 43
1 0.0710019 0.217422 0.00196588 0.00969113 0.049105 -0.0473037 0.00125 44
1 0.037766 0.297863 0.00136274 -0.0139342 -0.00934133 -0.273519 0.00125 45
1 0.246107 0.255712 0.00245327 0.0121541 -0.0109251 -0.0446015 0.00125 46
1 0.170598 0.337506 0.0022155 -0.00331569 -0.0265288 -0.155589 0.00125 47
1 0.130361 0.225989 0.00161434 0.0417801 0.0281296 -0.202127 0.00125 48
1 0.177857 0.162712 0.0014331 -0.0106532 -0.0131685 0.138836 0.00125 49
1 0.256116 0.272976 0.00170948 0.0416807 -0.0366753 0.139198 0.00125 50
1 0.258638 0.0720607 0.00184191 0.0143474 0.0550864 -0.0630765 0.00125 51
1 0.0935887 0.142028 0.00191164 0.130785 -0.0386621 -0.102699 0.00125 52
1 0.0409845 0.0567807 0.00242025 -0.0180965 -0.0150961 0.0283071 0.00125 53
1 0.0967028 0.134768 0.00180208 0.0474723 -0.0508626 -0.161017 0.00125 54
1 0.166848 0.0106838 0.00123679 0.0170764 0.0167609 0.153764 0.00125 55
1 0.0153312 0.0779381 0.00143313 -0.0183298 -0.00152736 -0.240541 0.00125 56
1 0.146346 0.144571 0.00160365 0.00647129 -0.00109325 0.0925742 0.00125 57
1 0.296528 0.183168 0.0014061 -0.0270766 -0.0614888 0.0672253 0.00125 58
1 0.0923089 0.0809738 0.00141477 -0.0971384 0.0705471 -0.243365 0.00125 59
1 0.265172 0.321356 0.00137873 -0.00054414 -0.0173064 -0.222452 0.00125 60
1 0.128066 0.137293 0.00123825 -0.0468343 -0.0326269 -0.19078 0.00125 61
1 0.146204 0.00721383 0.00154947 0.0609342 -0.0237559 -0.087121 0.00125 62
1 0.298057 0.315188 0.00143944 0.00785301 -0.00383966 0.134884 0.00125 63
1 0.295987 0.0684376 0.00185856 -0.0266019 0.031439 -0.137106 0.00125 64
1 0.283185 0.0446459 0.00147604 -0.0277622 0.0165502 0.237319 0.00125 65
1 0.209962 0.258394 0.00170352 0.0179143 -0.0140178 0.0971787 0.00125 66
1 0.120065 0.212551 0.00132076 0.0157259 -0.00890448 0.175173 0.00125 67
1 0.178627 0.00428055 0.00122785 0.00540362 0.00668913 0.146361 0.00125 68
1 0.314673 0.0994048 0.00145384 -0.00736971 0.00185587 0.149203 0.00125 69
1 0.0723843 0.225986 0.00146989 -0.0224379 0.0172295 -0.195819 0.00125 70
1 0.0876027 0.222916 0.00213394 -0.0180445 -0.0593024 -0.0542644 0.00125 71
1 0.31664 0.190816 0.00125224 -0.0696947 0.00878823 -0.235432 0.00125 72
1 0.0339241 0.129013 0.00174027 0.0392243 -0.0472523 -0.250006 0.00125 73
1 0.251429 0.117418 0.00214035 -0.0646534 0.033933 -0.0361663 0.00125 74
1 0.23012 0.19892 0.00241738 -0.0159982 0.0126166 -0.0378455 0.00125 75
1 0.114633 0.198442 0.00140292 -0.0329512 -0.0567701 0.165286 0.00125 76
1 0.073507 0.255098 0.00125069 0.00812207 -0.0467065 0.22751 0.00125 77
1 0.0691758 0.106816 0.00148739 0.00659667 0.0058098 0.222495 0.00125 78
1 0.292954 0.264151 0.00157113 0.00581792 -0.00384184 0.121028 0.00125 79
1 0.186793 0.131105 0.00223152 0.0395622 -0.0596901 -0.0692664 0.00125 80
1 0.301141 0.248411 0.0020986 -0.0169517 -0.00146683 -0.0995433 0.00125 81
1 0.22647 0.0750037 0.00151202 -0.0373345 -0.0405048 -0.185629 0.00125 82
1 0.11098 0.318147 0.00146521 -0.0166959 -0.0205755 -0.192331 0.00125 83
1 0.338671 0.328904 0.00124819 0.00795828 0.00909935 0.0860293 0.00125 84
1 0.317639 0.145123 0.00129807 -0.0236928 -0.0127452 -0.228147 0.00125 85
1 0.0920825 0.26194 0.00173685 0.0097523 0.0384068 0.11801 0.00125 86
1 0.25242 0.0903804 0.00145506 0.00473982 0.00659571 0.106797 0.00125 87
1 0.079161 0.0970549 0.00141465 -0.00337147 0.00199833 -0.238412 0.00125 88
1 0.281786 0.14656 0.00234865 -0.0709193 -0.0434449 0.019429 0.00125 89
1 0.0722066 0.0916988 0.00200437 0.0768763 0.0309736 -0.21241 0.00125 90
1 0.296948 0.263347 0.00214025 0.00460801 0.00125284 -0.15334 0.00125 91
1 0.308462 0.0571179 0.00214185 -0.00622847 0.0114427 -0.0319866 0.00125 92
1 0.0129053 0.154894 0.00133743 -0.0043952 0.021763 -0.242673 0.00125 93
1 0.170282 0.307958 0.00175564 -0.00250446 0.0237253 -0.0569397 0.00125 94
1 0.342033 0.135096 0.00149114 -0.0405515 0.000419828 0.248429 0.00125 95
1 0.0456955 0.0738394 0.00178381 0.00170661 0.0410457 0.0956728 0.00125 96
1 0.0530048 0.255812 0.00123166 0.0169508 0.0334495 0.136311 0.00125 97
1 0.185109 0.308354 0.0012739 0.0171972 -0.00942539 0.00867064 0.00125 98
1 0.33249 0.195244 0.00139351 0.00359923 -0.00615834 -0.229931 0.00125 99
1 0.261 0.332542 0.00133398 -0.00118844 0.00290498 0.226031 0.00125 100
1 0.168244 0.0510119 0.0019539 0.00301604 -0.0106669 -0.0497493 0.00125 101
1 0.297342 0.334245 0.00134848 -0.0095771 0.0040055 0.225809 0.00125 102
1 0.325334 0.159381 0.00151359 0.0234417 -0.00216304 -0.204697 0.00125 103
1 0.161777 0.0625589 0.00208011 0.0299636 -0.0295988 -0.0543634 0.00125 104
1 0.289353 0.222259 0.00135331 0.0450019 -0.00276065 -0.23263 0.00125 105
1 0.266621 0.312891 0.0012518 0.0743721 0.015698 -0.0680343 0.00125 106
1 0.26199 0.284103 0.00127887 0.0440311 0.0443333 -0.102268 0.00125 107
1 0.0907826 0.236953 0.00125014 -0.0207635 -0.000443459 0.19403 0.00125 108
1 0.201922 0.19344 0.00176693 -0.00784903 0.00469909 -0.0850419 0.00125 109
1 0.322542 0.195189 0.00155724 -0.0141622 0.00742682 -0.205084 0.00125 110
1 0.194549 0.330289 0.00190763 0.00480475 0.0135904 -0.213065 0.00125 111
1 0.243618 0.195305 0.00131304 0.00633742 0.0156604 0.250187 0.00125 112
1 0.0665491 0.192135 0.0013509 -0.0254235 0.0518139 0.113509 0.00125 113
1 0.230436 0.316292 0.00201309 -0.0132549 -0.00439491 -0.120235 0.00125 114
1 0.218705 0.227171 0.00180015 -0.0580553 0.0428818 -0.101398 0.00125 115
1 0.110522 0.275854 0.00130772 0.00135094 -0.0210871 -0.221193 0.00125 116
1 0.258956 0.2048 0.00122912 -0.0212619 0.0069081 0.00828625 0.00125 117
1 0.247636 0.0153097 0.00154747 0.0316353 0.0106217 -0.0919112 0.00125 118
1 0.0722942 0.300265 0.00189075 0.0040251 0.000241256 -0.0287983 0.00125 119
1 0.296426 0.329583 0.00138148 0.0319148 -0.0373693 0.1631 0.00125 120
1 0.2387 0.00878792 0.0013615 0.0444488 0.0303056 -0.227769 0.00125 121
1 0.0271543 0.167885 0.00196532 -0.012503 0.00803161 -0.193077 0.00125 122
1 0.215712 0.0363051 0.00147464 0.0291524 -0.00482737 -0.212967 0.00125 123
1 0.313347 0.325846 0.00175047 0.0142846 0.000353255 -0.213579 0.00125 124
1 0.077028 0.306183 0.00216326 0.0141071 -0.013003 -0.0556082 0.00125 125
1 0.0317405 0.112506 0.00154354 -0.011198 0.0101192 -0.0756385 0.00125 126
1 0.103549 0.261763 0.00130828 -0.0189162 -0.0109115 -0.296004 0.00125 127
1 0.338828 0.151084 0.00130447 0.0664285 0.0671018 0.232059 0.00125 128
1 0.294819 0.0887725 0.00127089 -0.0184157 -0.00330177 -0.245103 0.00125 129
1 0.305737 0.134757 0.00239525 0.025831 -0.00336092 -0.0935028 0.00125 130
1 0.29067 0.26965 0.0012568 -0.0420579 0.0477035 -0.0711276 0.00125 131
1 0.305087 0.307882 0.00138639 -0.0149792 -0.0062898 0.160868 0.00125 132
1 0.0766326 0.0708672 0.00177695 0.0252474 -0.00172205 -0.140851 0.00125 133
1 0.32695 0.109841 0.00154864 -0.0104407 -0.0129415 -0.179337 0.00125 134
1 0.152708 0.106028 0.00130751 0.00543911 0.0112693 -0.236419 0.00125 135
1 0.234948 0.17968 0.00175151 0.0133743 -0.0111547 0.118306 0.00125 136
1 0.259622 0.192582 0.00160907 -0.00800247 0.000784421 0.0909078 0.00125 137
1 0.0544239 0.250722 0.00155211 0.0749659 -0.0487736 0.115945 0.00125 138
1 0.266826 0.0177501 0.00142753 -0.0380192 0.00372804 0.110203 0.00125 139
1 0.109693 0.139562 0.00132621 -0.00357934 -0.0347937 0.0627303 0.00125 140
1 0.270848 0.197584 0.0016131 0.000253185 0.00694245 -0.182055 0.00125 141
1 0.309248 0.270641 0.00159887 -0.000243325 0.0111965 -0.232219 0.00125 142
1 0.342654 0.291968 0.00138349 0.0119753 0.0021973 0.172652 0.00125 143
1 0.28233 0.00923997 0.00169958 0.0123626 0.0370018 0.0773996 0.00125 144
1 0.0973694 0.338086 0.00131812 0.013715 -0.00964813 -0.310979 0.00125 145
1 0.0388999 0.147305 0.0024255 -0.020108 0.0325341 -0.0399181 0.00125 146
1 0.00245172 0.233605 0.00214602 0.00597554 0.04609 -0.00274371 0.00125 147
1 0.0781378 0.150459 0.00126462 -0.0111841 0.0114193 -0.151904 0.00125 148
1 0.0660354 0.259838 0.00159819 -0.0149852 0.00183481 -0.233261 0.00125 149
1 0.130799 0.267749 0.00191812 0.00616165 0.0248619 -0.0814747 0.00125 150
1 0.186905 0.0466088 0.00140808 0.0476804 -0.00491545 0.211917 0.00125 151
1 0.209398 0.289854 0.0015887 -0.0039609 0.0159401 -0.0701534 0.00125 152
1 0.342235 0.179983 0.0013431 -0.0181057 0.014526 0.136824 0.00125 153
1 0.324707 0.191535 0.00188584 -0.0628214 0.0309567 -0.0910018 0.00125 154
1 0.273045 0.19538 0.00218906 -0.0190957 -0.00643109 -0.0543036 0.00125 155
1 0.0170825 0.145549 0.0013457 0.0219 -0.0104983 0.169631 0.00125 156
1 0.21873 0.173647 0.00136917 0.0247116 0.00483526 -0.245942 0.00125 157
1 0.320246 0.204843 0.00136583 0.00979826 0.016508 -0.288873 0.00125 158
1 0.280181 0.0686551 0.00129389 0.0267152 -0.0251929 0.201644 0.00125 159
1 0.263716 0.0489011 0.00158066 -0.0123519 0.0107674 -0.198839 0.00125 160
1 0.202807 0.266338 0.00151602 0.0213799 -0.0212094 -0.233721 0.00125 161
1 0.0395006 0.300757 0.00126074 0.0722992 -0.0215536 -0.269512 0.00125 162
1 0.127115 0.193802 0.00126472 -0.0223679 -0.00932727 -0.24696 0.00125 163
1 0.19106 0.302341 0.00129208 -0.00546823 0.0992002 -0.218051 0.00125 164
1 0.166349 0.162618 0.00131893 0.0198289 -0.0155344 -0.101256 0.00125 165
1 0.236935 0.122559 0.00136956 0.0176285 0.00048787 -0.238623 0.00125 166
1 0.173308 0.296303 0.0018974 -0.000119611 0.0124818 -0.0679683 0.00125 167
1 0.30675 0.241678 0.00151317 0.00577472 -0.0214986 -0.0651986 0.00125 168
1 0.0179488 0.225284 0.00137757 0.0283238 0.0328776 0.118717 0.00125 169
1 0.0809838 0.335741 0.00143946 0.0218098 -0.0105667 0.134818 0.00125 170
1 0.3086 0.0170405 0.00132226 0.0147724 -0.0143067 0.202017 0.00125 171
1 0.227253 0.145832 0.00125662 -0.00736864 0.0119442 -0.191187 0.00125 172
1 0.157303 0.171431 0.00209947 -0.00830406 -0.0516356 -0.168259 0.00125 173
1 0.223066 0.303764 0.00172713 0.0284854 0.00738923 -0.235868 0.00125 174
1 0.29575 0.295895 0.00135135 0.0820761 -0.0275824 0.140709 0.00125 175
1 0.0546752 0.310832 0.00209194 -0.0278308 0.018317 -0.203746 0.00125 176
1 0.329141 0.200697 0.00123804 0.0183887 0.00288526 -0.0648506 0.00125 177
1 0.180472 0.186692 0.00162807 -0.00712867 -0.00932818 -0.22868 0.00125 178
1 0.219627 0.12657 0.00158121 -0.0354882 0.0309895 -0.179493 0.00125 179
1 0.0215147 0.121899 0.00130921 0.00335959 0.0194251 -0.167063 0.00125 180
1 0.24354 0.0846673 0.00231799 0.0106665 0.0174916 -0.0530776 0.00125 181
1 0.0659672 0.093547 0.00248916 0.0144785 0.0114303 -0.015556 0.00125 182
1 0.123351 0.0376811 0.00145236 -0.0571601 0.0176542 -0.163273 0.00125 183
1 0.197291 0.0650383 0.00174122 -0.00824717 -0.00605527 -0.237811 0.00125 184
1 0.0899866 0.296826 0.00164723 0.0110261 -0.00395174 -0.0924039 0.00125 185
1 0.181622 0.338811 0.00173971 0.0185423 -0.0401098 -0.0352763 0.00125 186
1 0.147918 0.138002 0.00129716 -0.0330547 0.0106582 -0.301658 0.00125 187
1 0.16561 0.326613 0.00234282 0.0212361 0.0114031 -0.0458005 0.00125 188
1 0.0349869 0.226147 0.00124905 0.00963447 0.0271003 0.176333 0.00125 189
1 0.249856 0.123954 0.00167226 -0.0233698 0.0189586 0.124481 0.00125 190
1 0.246471 0.199862 0.0013636 0.0931163 0.0315517 -0.0785302 0.00125 191
1 0.324376 0.125806 0.00138271 0.00626643 -0.0128349 0.18321 0.00125 192
1 0.333169 0.20144 0.0013612 -0.00334154 -0.00367381 -0.252624 0.00125 193
1 0.322692 0.0608084 0.00166562 0.0183781 -0.0344782 -0.0575172 0.00125 194
1 0.263946 0.324269 0.00160484 0.0021437 -0.00321823 0.096946 0.00125 195
1 0.0764904 0.0576177 0.00148487 0.00936799 0.015699 0.120188 0.00125 196
1 0.0180174 0.100376 0.00251044 -0.0114813 -0.0313033 -0.0151032 0.00125 197
1 0.33631 0.111228 0.00144666 0.0374122 0.0102797 -0.288469 0.00125 198
1 0.202032 0.343801 0.00141581 0.00597635 0.00732088 -0.203706 0.00125 199
1 0.257702 0.0925782 0.00152883 0.00447428 -0.0264227 -0.229176 0.00125 200
1 0.18292 0.333745 0.0013071 -0.062016 -0.00580866 -0.00945284 0.00125 201
1 0.239622 0.315283 0.00152759 0.000708473 0.0255882 -0.288115 0.00125 202
1 0.00563826 0.244926 0.00124472 -0.00517198 0.00197158 0.249778 0.00125 203
1 0.331939 0.260444 0.00219964 -0.0199968 -0.0258607 -0.0623437 0.00125 204
1 0.118403 0.203495 0.001587 0.0314178 0.0434911 -0.274286 0.00125 205
1 0.117771 0.124168 0.00123189 -0.000287953 -0.00977588 -0.148212 0.00125 206
1 0.24251 0.0921476 0.00195602 -0.0176748 -0.0311737 -0.0728927 0.00125 207
1 0.11958 0.102292 0.00125773 -0.0376365 0.006957 -0.288716 0.00125 208
1 0.0209981 0.187938 0.00129041 0.0240458 0.0269229 0.207143 0.00125 209
1 0.208258 0.177786 0.00214492 -0.0129187 0.0074707 -0.0531459 0.00125 210
1 0.0663149 0.343508 0.00131034 0.0257863 0.00498297 -0.229393 0.00125 211
1 0.254902 0.188853 0.00171468 -0.00763742 -0.00493549 -0.0770701 0.00125 212
1 0.333873 0.292838 0.00152324 0.0113106 0.0118337 -0.232901 0.00125 213
1 0.292454 0.118135 0.00145406 0.0160926 -0.00517774 -0.255732 0.00125 214
1 0.01777 0.206568 0.00183486 -0.0618078 0.0317599 -0.226575 0.00125 215
1 0.248002 0.117494 0.00174907 0.0290807 -0.00645692 -0.226542 0.00125 216
1 0.153281 0.0869902 0.00143747 0.000997004 0.0115367 0.21206 0.00125 217
1 0.152697 0.0915856 0.00174637 -0.033031 0.0138462 -0.172779 0.00125 218
1 0.116051 0.261716 0.00154668 0.019169 -0.00244708 0.111459 0.00125 219
1 0.242283 0.277784 0.00161477 0.00349801 -0.00245354 0.143357 0.00125 220
1 0.0040916 0.155053 0.00143042 0.0048892 -0.00545779 -0.0813695 0.00125 221
1 0.0124084 0.0762026 0.00190207 -0.0286598 -0.00717824 -0.0414647 0.00125 222
1 0.028541 0.30317 0.00145718 0.00874173 0.00220802 -0.26885 0.00125 223
1 0.242652 0.116083 0.00144463 0.00247294 -0.0815814 -0.215868 0.00125 224
1 0.10276 0.130538 0.00156703 -0.0142277 0.0134463 0.0818006 0.00125 225
1 0.233063 0.115264 0.00143859 -0.0227302 -0.00474531 -0.199032 0.00125 226
1 0.213932 0.127068 0.00128139 -0.0285854 -0.0205876 -0.233835 0.00125 227
1 0.0508358 0.157941 0.0013776 0.00840723 -0.00632706 0.204112 0.00125 228
1 0.0784875 0.0756488 0.00157735 0.0116513 0.0384043 -0.165079 0.00125 229
1 0.162885 0.289422 0.00147662 0.0255511 0.0285043 -0.199594 0.00125 230
1 0.265906 0.111233 0.00235469 0.0185656 0.0165983 -0.109821 0.00125 231
1 0.130292 0.0730489 0.00150579 0.00759068 0.00688918 0.18268 0.00125 232
1 0.285413 0.3097 0.00165803 0.00420551 0.0371288 -0.22985 0.00125 233
1 0.239774 0.223331 0.0014454 -0.00263244 0.00945804 0.145692 0.00125 234
1 0.0420797 0.181564 0.00132104 -0.022784 0.0267348 -0.286599 0.00125 235
1 0.219425 0.0651239 0.00124973 0.00236872 -0.0110573 0.192955 0.00125 236
1 0.230674 0.173363 0.00180147 -0.012753 -0.0521572 -0.210579 0.00125 237
1 0.310585 0.155632 0.00146433 0.00207313 -0.00777267 -0.225154 0.00125 238
1 0.228399 0.30712 0.00135552 0.00713912 0.0227454 -0.242275 0.00125 239
1 0.264836 0.0862664 0.00139536 -0.0588753 -0.0295233 0.143236 0.00125 240
1 0.040889 0.282681 0.00187531 0.0345428 0.0091516 -0.196697 0.00125 241
1 0.17123 0.0531805 0.00196656 -0.0115041 -0.0164408 -0.0745472 0.00125 242
1 0.129463 0.155017 0.00172068 -0.0215475 0.00449248 0.0969308 0.00125 243
1 0.201432 0.125082 0.00142092 0.0347695 -0.00592736 0.142235 0.00125 244
1 0.34352 0.0943849 0.00244131 0.00246677 0.0166691 -0.0573472 0.00125 245
1 0.270097 0.0492615 0.00168663 -0.00135076 -0.0237273 -0.174616 0.00125 246
1 0.150847 0.166223 0.00222525 -0.0231563 0.00771576 -0.175877 0.00125 247
1 0.00624044 0.0893006 0.00126491 -0.00106309 0.00617301 -0.232907 0.00125 248
1 0.0541183 0.0645213 0.00174967 0.0975657 -0.0216661 -0.121287 0.00125 249
1 0.172085 0.0446224 0.00146289 0.0171137 0.0352718 -0.280275 0.00125 250
1 0.100213 0.314907 0.0014138 -0.00408847 0.0135249 0.181071 0.00125 251
1 0.260501 0.11742 0.00133742 0.0282838 -0.00839917 -0.225655 0.00125 252
1 0.200743 0.287854 0.00166796 0.0483578 -0.00480968 -0.246912 0.00125 253
1 0.0032551 0.340778 0.00182683 -0.0310129 0.0412541 -0.0318279 0.00125 254
1 0.277103 0.036651 0.00171721 0.00780254 -0.00421513 -0.22015 0.00125 255
1 0.0999017 0.336343 0.00140447 0.00691011 0.0112743 -0.218733 0.00125 256
1 0.292872 0.221207 0.00164926 0.0324889 0.100454 -0.101918 0.00125 257
1 0.181931 0.154972 0.00166378 0.0186153 -0.00386398 -0.232791 0.00125 258
1 0.0210488 0.246246 0.0013986 0.0300279 0.0042916 0.180938 0.00125 259
1 0.05814 0.311857 0.00140204 -0.00730804 0.0149247 -0.098571 0.00125 260
1 0.0635281 0.165804 0.00124174 -0.0306759 0.044549 0.18165 0.00125 261
1 0.277722 0.126343 0.00167138 0.0220508 -0.0274232 -0.229019 0.00125 262
1 0.196824 0.0855165 0.00163169 0.0124797 0.0319631 0.0838447 0.00125 263
1 0.022853 0.0573821 0.00123782 -0.00581639 -0.0164857 0.167144 0.00125 264
1 0.0539553 0.0282626 0.00154792 -0.0193399 0.0204822 0.106585 0.00125 265
1 0.129969 0.0318927 0.0016892 -0.00729514 -0.00509241 -0.16741 0.00125 266
1 0.184432 0.240919 0.00137019 -0.0117907 -0.0159783 0.144982 0.00125 267
1 0.166061 0.167482 0.00138343 -0.00760565 0.0111181 -0.236388 0.00125 268
1 0.0307193 0.308108 0.00152956 -0.00366253 0.0333715 0.143212 0.00125 269
1 0.0557818 0.289625 0.00151479 -0.0135441 0.0287485 -0.245953 0.00125 270
1 0.146304 0.0222356 0.00141058 0.0246061 0.0287134 0.14424 0.00125 271
1 0.208081 0.219028 0.00130676 0.0336896 -0.0272952 0.118754 0.00125 272
1 0.141867 0.103795 0.00169173 0.022189 -0.019617 -0.230863 0.00125 273
1 0.204789 0.183636 0.00247605 -0.00218414 0.0196514 0.0330693 0.00125 274
1 0.0104047 0.0864189 0.00135109 0.0440266 -0.00782068 0.0547533 0.00125 275
1 0.310657 0.0269046 0.00191533 0.0481104 0.0032524 -0.188978 0.00125 276
1 0.0103884 0.106335 0.00141202 -0.00152863 0.016076 0.142995 0.00125 277
1 0.216984 0.217111 0.00165767 -0.0267361 -0.0268075 0.151953 0.00125 278
1 0.0227838 0.106841 0.00232502 -0.00771166 0.00889547 -0.120253 0.00125 279
1 0.1317 0.00725299 0.0022861 -0.0215782 0.00181647 -0.0362509 0.00125 280
1 0.176587 0.131472 0.00146193 0.056115 -0.0295483 -0.180972 0.00125 281
1 0.157324 0.0686177 0.00149809 -0.0265163 -0.0105918 0.163872 0.00125 282
1 0.318945 0.332667 0.0017917 0.00391392 -0.00720344 0.125317 0.00125 283
1 0.0612327 0.092332 0.00137741 0.0106405 0.01125 0.22274 0.00125 284
1 0.225871 0.183652 0.00155074 0.00796443 -0.0308968 0.10993 0.00125 285
1 0.335302 0.232014 0.00147343 0.0041953 0.0138923 -0.195326 0.00125 286
1 0.11182 0.0723705 0.00124379 0.0274631 0.0209704 0.197611 0.00125 287
1 0.190218 0.319532 0.00145403 -0.00615552 -0.00107727 -0.238026 0.00125 288
1 0.134175 0.0146894 0.00180811 -0.0693169 -0.0367516 -0.167966 0.00125 289
1 0.0550866 0.018966 0.00131763 -0.00408442 0.0158346 0.262592 0.00125 290
1 0.155929 0.295177 0.00159775 0.02323 -0.0552791 -0.201418 0.00125 291
1 0.120892 0.154431 0.00147754 0.00014625 -0.0187788 0.216012 0.00125 292
1 0.29503 0.269946 0.00206591 0.0407176 0.053069 -0.205443 0.00125 293
1 0.290799 0.294137 0.00147614 0.00446265 0.000125474 -0.287381 0.00125 294
1 0.0483811 0.153981 0.0013437 -0.0128315 0.115042 0.0581484 0.00125 295
1 0.149423 0.265376 0.00203596 0.00520963 -0.0299735 -0.108919 0.00125 296
1 0.26802 0.286037 0.00126297 -0.00938782 0.0121052 -0.228684 0.00125 297
1 0.321135 0.114254 0.00223453 -0.047926 0.0112879 -0.108246 0.00125 298
1 0.167825 0.28875 0.00135767 0.0272675 -0.0213347 -0.204271 0.00125 299
1 0.167663 0.0883032 0.00246315 0.00266847 0.00203427 0.0348129 0.00125 300
1 0.206499 0.00674474 0.00136635 0.0144971 0.0120882 -0.194003 0.00125 301
1 0.28212 0.299201 0.00147988 -0.0190731 0.0167342 -0.236541 0.00125 302
1 0.152264 0.0989267 0.00179459 -0.00380566 -0.0109038 0.153755 0.00125 303
1 0.0660404 0.268356 0.00230759 -0.00249504 -0.00382372 -0.00503809 0.00125 304
1 0.312108 0.277348 0.0018701 -0.0188715 -0.0180391 -0.0859598 0.00125 305
1 0.0904321 0.255581 0.00203957 -0.0652351 0.024401 -0.0576816 0.00125 306
1 0.0194832 0.256959 0.00124852 0.0110048 -0.000834983 0.198409 0.00125 307
1 0.133695 0.147858 0.00162251 0.00813335 0.00475029 0.08746 0.00125 308
1 0.0130034 0.32811 0.00143395 -0.0119163 -0.020949 0.232513 0.00125 309
1 0.00893499 0.142381 0.00135467 0.0170852 -0.00396927 -0.236795 0.00125 310
1 0.320836 0.107742 0.00242545 -0.0248829 0.00131194 -0.00170863 0.00125 311
1 0.000134727 0.219063 0.00151929 -3.68441e-05 0.0229441 -0.206639 0.00125 312
1 0.277599 0.00623223 0.00137738 -0.0237802 -0.00679909 0.155558 0.00125 313
1 0.156339 0.250775 0.00152455 -0.000727512 0.0066966 0.135335 0.00125 314
1 0.0546997 0.0477109 0.00174551 -0.0367131 -0.0151753 0.149523 0.00125 315
1 0.0688882 0.103741 0.00124575 -0.0541366 0.0444596 -0.0966531 0.00125 316
1 0.205213 0.324827 0.00199685 0.0418295 0.00029127 -0.0577452 0.00125 317
1 0.241004 0.312831 0.00238534 0.0197554 0.0100928 -0.102685 0.00125 318
1 0.135491 0.33622 0.00172385 0.0674235 -0.0268376 -0.0530844 0.00125 319
1 0.304553 0.000790474 0.00137417 -0.011406 -0.0198833 -0.248951 0.00125 320
1 0.331009 0.30931 0.00141594 -0.0213212 -0.0459507 -0.222924 0.00125 321
1 0.135968 0.333572 0.00239019 -0.00269074 0.013268 -0.108345 0.00125 322
1 0.142912 0.0248845 0.0012288 -0.00817763 0.0220749 -0.0931372 0.00125 323
1 0.317955 0.228755 0.00158958 0.00850435 0.0119758 0.0546708 0.00125 324
1 0.133265 0.0207943 0.00146022 -0.0285651 -0.0147127 -0.163755 0.00125 325
1 0.0828848 0.284482 0.00147144 -0.0154702 0.00104849 0.167574 0.00125 326
1 0.144945 0.132872 0.00240474 -0.0444048 -0.0293814 -0.0988684 0.00125 327
1 0.14093 0.0346455 0.00162049 0.0368206 0.0186152 -0.236295 0.00125 328
1 0.159109 0.0820304 0.00129418 -0.00460892 0.00144253 -0.0487894 0.00125 329
1 0.0283622 0.0445195 0.00150042 -0.00952292 -0.00234726 -0.237727 0.00125 330
1 0.13581 0.146439 0.0015846 0.0107892 0.0464637 0.0186035 0.00125 331
1 0.230731 0.207728 0.00123002 -0.0423113 0.0075266 0.00266761 0.00125 332
1 0.208503 0.229587 0.00144388 -0.0164799 0.0106749 0.233524 0.00125 333
1 0.233409 0.144815 0.00169778 0.00188061 0.0192371 -0.247013 0.00125 334
1 0.203359 0.215583 0.00123275 -0.00474685 0.0185912 0.111513 0.00125 335
1 0.0185992 0.0956303 0.00226291 -0.0169731 -0.00150055 -0.0139962 0.00125 336
1 0.307391 0.233351 0.00141392 -0.0485256 0.0503955 -0.0772072 0.00125 337
1 0.0343792 0.341469 0.00171457 -0.0857489 0.0593636 -0.0949939 0.00125 338
1 0.0220629 0.312369 0.00151575 -0.0165839 0.0630945 -0.109584 0.00125 339
1 0.216907 0.110895 0.00136149 0.0202466 0.00190905 -0.285921 0.00125 340
1 0.283997 0.149853 0.0014804 0.0190842 0.0536819 0.181815 0.00125 341
1 0.190159 0.311087 0.00146684 -0.00204236 -0.0120453 -0.0663406 0.00125 342
1 0.0900188 0.134953 0.00132124 -0.00492207 -0.0281129 -0.211821 0.00125 343
1 0.0294282 0.121072 0.00141918 0.109602 -0.0758603 0.0610834 0.00125 344
1 0.212136 0.00867343 0.00126515 -0.0123929 -0.0259988 -0.252292 0.00125 345
1 0.0745243 0.0972212 0.00180514 -0.0254482 0.0122827 -0.216599 0.00125 346
1 0.126559 0.160449 0.00170236 0.0126409 -0.028526 -0.0870808 0.00125 347
1 0.222395 0.341657 0.00136918 0.00659896 0.0116845 -0.237833 0.00125 348
1 0.342323 0.267862 0.00128819 0.0188051 -0.0111212 -0.230946 0.00125 349
1 0.0910637 0.201102 0.00158247 -0.00353485 0.0104812 0.102457 0.00125 350
1 0.316394 0.039921 0.00217768 -0.0041826 -0.0110409 -0.0692667 0.00125 351
1 0.111971 0.169195 0.00157648 0.000104032 0.0140469 -0.0564288 0.00125 352
1 0.270737 0.143149 0.00138897 -0.0273958 0.000627923 -0.238272 0.00125 353
1 0.302635 0.333506 0.00236204 -0.00842257 -0.0136349 -0.0063259 0.00125 354
1 0.278647 0.175662 0.00244988 -0.0102749 0.0139332 -0.0557211 0.00125 355
1 0.0710804 0.00868894 0.00206317 0.018558 -0.0151063 -0.0606363 0.00125 356
1 0.146475 0.222006 0.00163687 -0.0372353 0.0186462 -0.066502 0.00125 357
1 0.15535 0.202169 0.00124875 0.00973195 -0.021158 0.0747888 0.00125 358
1 0.104557 0.267759 0.00175795 -0.00850263 -0.00514947 -0.216487 0.00125 359
1 0.0441353 0.244201 0.00145208 -0.00853251 -0.03292 0.124019 0.00125 360
1 0.280723 0.143 0.00130435 0.0341104 0.0581032 -0.12674 0.00125 361
1 0.011096 0.205285 0.00241232 -0.0514643 -0.0337581 -0.0879941 0.00125 362
1 0.1457 0.286747 0.00162095 -0.00119465 0.023255 0.0882281 0.00125 363
1 0.111378 0.131704 0.00187029 0.041139 -0.0578079 -0.215104 0.00125 364
1 0.125896 0.0850802 0.001329 -0.00125184 -0.00611849 -0.204041 0.00125 365
1 0.0650031 0.243496 0.0020179 0.0496253 -0.0631586 -0.0548998 0.00125 366
1 0.214603 0.031553 0.00162536 -0.0050572 0.0620887 -0.170181 0.00125 367
1 0.0103253 0.0502319 0.00140969 0.014957 -0.0133746 0.246828 0.00125 368
1 0.220285 0.186185 0.00247365 0.00290896 -0.0099931 -0.0809812 0.00125 369
1 0.111383 0.126088 0.00165606 -0.020694 -0.0196175 -0.0684303 0.00125 370
1 0.246861 0.157909 0.00141678 -0.0084617 0.00261388 0.147206 0.00125 371
1 0.0225885 0.144177 0.00130579 -0.00896027 -0.0124639 0.201982 0.00125 372
1 0.29476 0.125042 0.00134846 -0.00801374 -0.02051 -0.20794 0.00125 373
1 0.203612 0.090679 0.00129567 0.0502727 0.0602096 -0.257211 0.00125 374
1 0.285454 0.249409 0.00141589 -0.0103243 0.0208382 0.142895 0.00125 375
1 0.257287 0.14153 0.0012894 0.0131385 0.00836292 0.0661915 0.00125 376
1 0.149721 0.186937 0.00142859 0.026448 -0.0012891 -0.21397 0.00125 377
1 0.0123052 0.282282 0.00127353 -0.0261267 0.0392225 -0.249765 0.00125 378
1 0.173674 0.0621474 0.00152493 -0.00656238 -0.0117234 0.108051 0.00125 379
1 0.338881 0.0563258 0.00136831 0.0359115 0.0195511 -0.241137 0.00125 380
1 0.222394 0.159205 0.00168969 -0.0125069 -0.00327541 -0.0755068 0.00125 381
1 0.0838312 0.222679 0.00137625 -0.0239889 0.0135913 -0.231108 0.00125 382
1 0.284539 0.0613564 0.00157498 0.0120311 0.00288273 0.0981291 0.00125 383
1 0.325592 0.291942 0.0012368 -0.00172699 0.0033942 0.16202 0.00125 384
1 0.124007 0.160315 0.00152254 -0.0151659 0.00193191 -0.161703 0.00125 385
1 0.251305 0.263878 0.00146453 0.00223084 0.00873196 -0.300577 0.00125 386
1 0.273768 0.2367 0.00202271 -0.0560268 -0.00161271 -0.183442 0.00125 387
1 0.0786484 0.136453 0.00159553 -0.0126377 0.0275379 -0.185633 0.00125 388
1 0.183124 0.224614 0.00168413 -0.0109914 -0.00243164 -0.0538959 0.00125 389
1 0.117691 0.0751859 0.00162847 -0.00740443 -0.0457961 -0.108309 0.00125 390
1 0.286305 0.044602 0.00241425 -0.0151998 0.021526 -0.0873493 0.00125 391
1 0.029221 0.203077 0.00159118 0.00845924 -0.00110583 -0.0940896 0.00125 392
1 0.297159 0.219563 0.00133378 0.0753416 -0.032173 -0.0555036 0.00125 393
1 0.121103 0.0890336 0.00208365 0.00117979 0.0166721 0.000534835 0.00125 394
1 0.297539 0.14092 0.00171654 -0.0174527 -0.00921918 0.10636 0.00125 395
1 0.114408 0.226911 0.00170635 -0.026019 0.128207 -0.0659943 0.00125 396
1 0.224267 0.247038 0.00234196 -0.0177839 -0.00873329 -0.00742496 0.00125 397
1 0.0245532 0.0210958 0.00142955 0.00385527 -0.0269411 0.146429 0.00125 398
1 0.233115 0.0501416 0.00136253 5.91778e-05 -0.00205916 -0.237519 0.00125 399
1 0.319649 0.214962 0.00226435 -0.00962538 -0.0209391 -0.0255623 0.00125 400