ITEM: TIMESTEP
1000000
ITEM: NUMBER OF ATOMS
10000
ITEM: BOX BOUNDS pp pp ff
0.0000000000000000e+00 3.8166269500000000e-01
0.0000000000000000e+00 3.8166269500000000e-01
-1.2500000000000001e-02 1.2500000000000001e-02
ITEM: ATOMS type x y z vx vy vz radius id
1 0.101365 0.22684 0.00163928 0.0159925 0.00420662 -0.225728 0.00125 1
1 0.0551371 0.188812 0.00169058 -0.0145745 0.000665552 -0.0855397 0.00125 2
1 0.0335149 0.232913 0.00137277 0.0017517 0.00769244 -0.212891 0.00125 3
1 0.0145093 0.360445 0.00208991 -0.0118324 -0.0043686 -0.0742414 0.00125 4
1 0.14321 0.370536 0.00133251 -0.00548739 -0.0159541 0.172137 0.00125 5
1 0.292389 0.0546256 0.00141388 0.00493063 -0.0284221 -0.287921 0.00125 6
1 0.177444 0.285735 0.00215239 0.0248082 -0.007209 -0.0703389 0.00125 7
1 0.213372 0.0765836 0.00135161 -0.0372124 -0.0692614 -0.235854 0.00125 8
1 0.324299 0.367464 0.00131276 0.00103063 0.0131076 -0.234223 0.00125 9
1 0.0262963 0.19288 0.00133283 0.0167809 -0.0171622 0.230386 0.00125 10
1 0.174962 0.00572502 0.00138565 -0.0516031 0.0435999 -0.209088 0.00125 11
1 0.0686 0.136174 0.00178616 0.0112968 -0.0352875 -0.0990872 0.00125 12
1 0.374832 0.0434469 0.00230542 -0.00752272 -0.0246649 -0.0125765 0.00125 13
1 0.151464 0.319402 0.00168846 0.00113193 0.00207189 -0.0878486 0.00125 14
1 0.32763 0.299315 0.00149478 -0.0110505 0.0386753 -0.205609 0.00125 15
1 0.0560679 0.0837506 0.00234979 -0.0271613 0.000939328 -0.042885 0.00125 16
1 0.107339 0.0592886 0.00128491 0.0070601 -0.0115544 -0.231844 0.00125 17
1 0.105462 0.237622 0.00160585 -0.00613399 -0.00310835 0.0890097 0.00125 18
1 0.210696 0.0112971 0.00139036 -0.00294157 -0.0083176 0.17856 0.00125 19
1 0.378133 0.181369 0.00165921 -0.00484793 -0.0258561 -0.225902 0.00125 20
1 0.151709 0.180373 0.00125358 0.0114505 -0.000265398 -0.0601161 0.00125 21
1 0.173218 0.19633 0.0018038 -0.0200037 -0.0297424 0.104753 0.00125 22
1 0.260947 0.139316 0.00151749 -0.0217445 0.00426321 0.125343 0.00125 23
1 0.158917 0.220736 0.00162636 0.00691498 0.0174035 -0.0893067 0.00125 24
1 0.193688 0.354912 0.00138758 -0.00891825 0.0315623 0.163706 0.00125 25
1 0.320589 0.190891 0.00124038 0.0204285 -0.0064987 0.188831 0.00125 26
1 0.0108484 0.309121 0.00203868 -0.0441216 0.00334134 -0.0295307 0.00125 27
1 0.315199 0.281405 0.00250535 0.00913328 -0.00115251 -0.0580859 0.00125 28
1 0.0558992 0.0493207 0.00123887 0.0132276 0.0373188 0.194247 0.00125 29
1 0.357662 0.0491453 0.00134173 -0.00735052 -0.0222371 -0.253191 0.00125 30
1 0.258408 0.254626 0.00124711 0.015852 -0.00593104 0.198897 0.00125 31
1 0.315019 0.241706 0.00142919 -0.0132497 0.0286557 -0.183199 0.00125 32
1 0.128931 0.36507 0.0013909 -0.0118175 -0.000401323 -0.305302 0.00125 33
1 0.105546 0.244731 0.00140616 -0.0129529 0.0121633 0.148794 0.00125 34
1 0.0875303 0.163798 0.0012308 0.00307074 0.0156824 0.211335 0.00125 35
1 0.255608 0.319566 0.00142228 -0.0176061 -0.00578031 -0.235042 0.00125 36
1 0.142036 0.140706 0.00192669 -0.0589502 0.0328835 -0.167723 0.00125 37
1 0.202584 0.0793335 0.00123855 0.0108675 0.0131826 0.225389 0.00125 38
1 0.260713 0.0930717 0.0015539 -0.000869526 -0.0135435 -0.186687 0.00125 39
1 0.114323 0.223839 0.00151284 -0.00328409 0.00822313 -0.051557 0.00125 40
1 0.167197 0.180534 0.00137567 0.00075401 -0.00194669 0.185094 0.00125 41
1 0.0439302 0.249614 0.00130282 0.0314473 0.0722746 0.1574 0.00125 42
1 0.135383 0.201082 0.00164334 0.0391574 -0.018702 -0.267322 0.00125 43
1 0.289496 0.308814 0.00163424 0.00996836 -0.00481975 -0.231689 0.00125 44
1 0.0326108 0.347176 0.00169148 0.00127066 0.0193947 0.0949848 0.00125 45
1 0.0885961 0.233343 0.00160867 -0.00359675 0.00143407 -0.163675 0.00125 46
1 0.198114 0.219178 0.00140338 -0.00955976 -0.0336115 -0.238676 0.00125 47
1 0.245994 0.0656242 0.00143393 0.0234536 -0.00450501 -0.271875 0.00125 48
1 0.0892498 0.0331079 0.00166233 -0.0176475 0.00477077 -0.229798 0.00125 49
1 0.246207 0.159063 0.0015162 -0.0145002 0.00655792 -0.192746 0.00125 50
1 0.194646 0.104539 0.00143197 -0.00417684 -0.0151758 0.149914 0.00125 51
1 0.234294 0.0254495 0.00137133 -0.00616436 0.0142034 -0.226285 0.00125 52
1 0.287463 0.324887 0.00146096 -0.0190844 -0.0233829 -0.228508 0.00125 53
1 0.203878 0.0612421 0.00136786 -0.00375585 -0.00817211 0.163246 0.00125 54
1 0.287635 0.374018 0.00124243 -0.0127405 -0.00783588 -0.240591 0.00125 55
1 0.0154459 0.208003 0.00176049 -0.0240509 0.00976047 -0.0817573 0.00125 56
1 0.018754 0.18806 0.00150752 -0.0243665 -0.022749 0.116655 0.00125 57
1 0.0821031 0.196302 0.00148141 -0.00994336 0.00852691 0.146664 0.00125 58
1 0.0968867 0.157105 0.00134648 -0.011615 0.0171542 -0.236329 0.00125 59
1 0.18862 0.331873 0.00199568 0.00238548 0.00929601 -0.0596089 0.00125 60
1 0.0719239 0.0457573 0.00138789 0.00992595 0.0298866 -0.18552 0.00125 61
1 0.298441 0.170304 0.00187378 -0.0406155 0.0320131 -0.01891 0.00125 62
1 0.223011 0.342635 0.00247686 0.00369197 0.0206605 0.0357512 0.00125 63
1 0.267574 0.318586 0.00126046 -0.0128797 -0.0132812 0.17095 0.00125 64
1 0.00646546 0.135027 0.00156864 0.0115656 -0.00221496 -0.2316 0.00125 65
1 0.0859088 0.186865 0.0013432 0.0116073 0.00738691 0.213613 0.00125 66
1 0.0604008 0.294658 0.00150956 0.0225003 0.00192193 -0.191925 0.00125 67
1 0.314903 0.345821 0.00166013 -0.00170811 0.00266366 -0.0949277 0.00125 68
1 0.240927 0.0462819 0.00194587 0.000951849 -0.0369638 -0.00775462 0.00125 69
1 0.269046 0.00684629 0.00162403 0.0111017 0.00601674 0.0660516 0.00125 70
1 0.0244807 0.21027 0.0022022 0.00501424 -0.0063005 -0.0567885 0.00125 71
1 0.264939 0.218945 0.00125897 0.00147882 0.0372227 0.169979 0.00125 72
1 0.281821 0.0301101 0.00220515 0.0152989 -0.00664113 -0.0558133 0.00125 73
1 0.0465591 0.0186408 0.00132319 0.00428174 -0.0195769 -0.193601 0.00125 74
1 0.196862 0.200317 0.00166504 0.0192268 -0.0057114 -0.225068 0.00125 75
1 0.278263 0.0452612 0.00223794 -0.00713926 0.0104799 -0.143512 0.00125 76
1 0.238648 0.11508 0.00125348 0.0078472 -0.00632756 -0.105559 0.00125 77
1 0.292993 0.25228 0.0013977 -0.0039289 0.0037939 -0.304844 0.00125 78
1 0.340663 0.247767 0.00157166 0.0157844 0.00602814 0.114497 0.00125 79
1 0.202334 0.241443 0.00149307 0.0298366 0.0187998 0.0945344 0.00125 80
1 0.121895 0.0666475 0.00140768 0.00706094 0.0341174 0.216417 0.00125 81
1 0.370252 0.304941 0.0016104 0.0122852 -0.0400208 -0.0930375 0.00125 82
1 0.005065 0.357314 0.00166078 -0.0650823 0.0117641 -0.221563 0.00125 83
1 0.0613419 0.12775 0.00133194 -0.0272397 -0.00067437 0.170799 0.00125 84
1 0.0594135 0.0826784 0.00229619 -0.0027003 0.0178321 -0.13011 0.00125 85
1 0.053104 0.347683 0.00158869 -0.0118254 -0.0246373 -0.230321 0.00125 86
1 0.35376 0.372302 0.00137798 0.0177998 0.00058721 0.173187 0.00125 87
1 0.0804916 0.0202503 0.00130789 0.0394053 0.0546105 -0.0343698 0.00125 88
1 0.37102 0.13158 0.0017429 -0.0137864 0.0415015 0.121128 0.00125 89
1 0.194743 0.217333 0.00151174 -0.0361346 0.0189806 -0.224308 0.00125 90
1 0.288189 0.0613224 0.00144552 -0.0233672 -0.00142696 0.219146 0.00125 91
1 0.0641596 0.121964 0.00143678 0.0440458 -0.00138163 -0.0963538 0.00125 92
1 0.243379 0.0502138 0.00158299 0.00328502 -0.0166589 0.0983879 0.00125 93
1 0.0923018 0.0646743 0.00134405 -0.00637269 0.00081832 -0.261701 0.00125 94
1 0.288611 0.0430659 0.00194974 0.0129509 0.00873016 -0.0795182 0.00125 95
1 0.364897 0.000973083 0.00144926 -0.00735576 -0.0170207 -0.232244 0.00125 96
1 0.289097 0.240984 0.00125706 0.0227958 0.00349311 -0.0277576 0.00125 97
1 0.142726 0.147216 0.00133914 -0.0113109 -0.0098547 0.186307 0.00125 98
1 0.164154 0.245302 0.0013783 -0.00976399 0.015454 0.177204 0.00125 99
1 0.208796 0.0861114 0.00166059 -0.00465267 0.00063809 -0.279646 0.00125 100
1 0.166844 0.0502135 0.00148464 5.82248e-05 0.0996603 0.127046 0.00125 101
1 0.0291125 0.217688 0.00146363 0.00962227 -0.0287794 0.178417 0.00125 102
1 0.301242 0.347447 0.00147549 0.00184602 0.00946839 0.199005 0.00125 103
1 0.142346 0.0705675 0.00145509 -0.0293533 0.0181624 0.152584 0.00125 104
1 0.121479 0.157164 0.00138629 -0.00303812 -0.00288564 0.208861 0.00125 105
1 0.135561 0.195641 0.00141028 0.0227171 0.020664 0.128005 0.00125 106
1 0.194553 0.00714717 0.00215576 0.0714021 -0.0412968 -0.0511813 0.00125 107
1 0.139218 0.358029 0.00147016 0.0023186 0.0048391 -0.120289 0.00125 108
1 0.219245 0.177075 0.00140917 -0.00622146 -0.0161675 -0.239195 0.00125 109
1 0.0318258 0.296786 0.00220412 0.0675154 -0.0856464 -0.0364728 0.00125 110
1 0.150459 0.0547118 0.00135481 0.00254336 0.00430498 0.0383879 0.00125 111
1 0.304424 0.315621 0.00131064 0.0138904 -0.018268 0.236739 0.00125 112
1 0.124989 0.0854298 0.00132211 -0.00502488 -0.0459254 -0.110983 0.00125 113
1 0.215881 0.356305 0.00139347 0.00546314 0.00825621 0.167786 0.00125 114
1 0.224457 0.366216 0.00177717 0.0215941 0.00615171 -0.216518 0.00125 115
1 0.296641 0.0235746 0.00147392 0.00838755 -0.00672132 0.125464 0.00125 116
1 0.0558285 0.183019 0.00158498 0.0139251 0.091384 -0.0831938 0.00125 117
1 0.0497487 0.0571525 0.00217683 -0.0393763 0.0200531 -0.155205 0.00125 118
1 0.19629 0.0342533 0.00123297 0.0272841 -0.0644258 -0.0159478 0.00125 119
1 0.061965 0.0338685 0.00160403 0.0366244 -0.00545323 0.088717 0.00125 120
1 0.0544527 0.146068 0.00150702 0.0353036 0.0305331 -0.236864 0.00125 121
1 0.0872865 0.349003 0.00155057 -0.00912188 -0.0159837 0.116602 0.00125 122
1 0.378245 0.250148 0.00148044 0.0125602 -0.0180293 -0.106348 0.00125 123
1 0.247612 0.103688 0.001574 -0.0119721 -0.0255007 -0.230523 0.00125 124
1 0.171479 0.344797 0.00142929 -0.0155121 0.0151563 0.212221 0.00125 125
1 0.267422 0.227596 0.00134092 -0.00807778 0.000629007 -0.237297 0.00125 126
1 0.328772 0.0281357 0.0017689 0.0191681 0.00557533 0.134249 0.00125 127
1 0.209196 0.0540565 0.00248222 -0.00861448 -0.00101215 -0.0355621 0.00125 128
1 0.243343 0.030145 0.00148327 -0.0134917 0.0307961 0.07205 0.00125 129
1 0.0568591 0.367555 0.00125487 -0.00371858 -0.0279618 0.216703 0.00125 130
1 0.23437 0.350513 0.0015348 0.0182242 0.00569023 -0.213276 0.00125 131
1 0.0746019 0.112387 0.00161848 0.026211 -0.0143472 0.0911286 0.00125 132
1 0.283695 0.27433 0.00143123 -0.0223759 0.015503 0.216135 0.00125 133
1 0.303922 0.10732 0.00227168 -0.00555734 0.000340952 -0.0647063 0.00125 134
1 0.162315 0.321076 0.00123126 0.0120353 0.0153316 0.0933429 0.00125 135
1 0.320993 0.0323106 0.00175771 0.0176643 0.00735172 0.125122 0.00125 136
1 0.297735 0.126879 0.00241968 -0.00160117 -0.0259357 -0.0608752 0.00125 137
1 0.375079 0.208108 0.00180862 0.00614108 0.018821 -0.0356302 0.00125 138
1 0.0298253 0.336653 0.00149646 -0.0289662 0.0220127 -0.26389 0.00125 139
1 0.188339 0.130053 0.00175915 -0.0152151 0.0712071 -0.0519733 0.00125 140
1 0.294863 0.100573 0.0017793 -0.00581477 -0.00213812 -0.218475 0.00125 141
1 0.203174 0.0830271 0.00172251 0.00849138 -0.00519421 0.142386 0.00125 142
1 0.321012 0.232185 0.00130547 0.00815266 0.0126444 -0.31331 0.00125 143
1 0.0328625 0.246269 0.00127187 0.000283802 0.0146994 0.189587 0.00125 144
1 0.107002 0.0427938 0.00169046 -0.0170143 0.000756091 0.0928285 0.00125 145
1 0.226133 0.143094 0.00128218 -0.00242232 -0.00494664 -0.247539 0.00125 146
1 0.090143 0.225426 0.00128172 -0.0282366 -0.0131358 -0.235916 0.00125 147
1 0.368309 0.151152 0.00126548 -0.000713635 -0.0172145 -0.226289 0.00125 148
1 0.357063 0.107647 0.00174218 0.0163942 0.0283198 -0.0753864 0.00125 149
1 0.334841 0.0334352 0.0021504 -0.039267 0.0239074 -0.0715588 0.00125 150
1 0.129491 0.279656 0.00146101 -0.0134479 -0.0315561 0.160407 0.00125 151
1 0.0106756 0.303454 0.00136705 0.00403528 0.015048 0.190075 0.00125 152
1 0.0595941 0.278703 0.00156506 -0.0292141 0.0123337 -0.254331 0.00125 153
1 0.350855 0.342025 0.00130071 -0.00797617 0.0230192 -0.201882 0.00125 154
1 0.0624314 0.21292 0.00157985 0.00415973 0.00592523 0.186243 0.00125 155
1 0.349616 0.274413 0.00223068 -0.0168517 -0.0148044 -0.171719 0.00125 156
1 0.0310944 0.0591478 0.00154149 -0.0431744 0.117498 0.0962233 0.00125 157
1 0.140634 0.0548272 0.00171406 0.00413628 0.00898447 0.0882233 0.00125 158
1 0.0454034 0.0450522 0.00160571 0.0143753 0.0238341 0.118216 0.00125 159
1 0.137763 0.0563035 0.00172984 -0.0362456 0.0303895 0.122359 0.00125 160
1 0.0670486 0.36938 0.00241112 -0.0052278 -0.00483578 0.0256195 0.00125 161
1 0.0290724 0.378225 0.00152755 -0.014722 0.00382636 -0.236749 0.00125 162
1 0.111448 0.23085 0.00136992 -0.0344573 0.0181888 -0.265996 0.00125 163
1 0.0432631 0.189757 0.00145595 0.0234669 0.0149451 0.228513 0.00125 164
1 0.243429 0.18591 0.00141564 0.015915 0.0235181 -0.101829 0.00125 165
1 0.0600967 0.134249 0.00143834 -0.0130977 -0.0121669 -0.192896 0.00125 166
1 0.274814 0.36174 0.00160279 -0.00517354 -0.00434471 -0.24993 0.00125 167
1 0.0381736 0.171754 0.00209505 -0.028377 -0.0125954 -0.00627282 0.00125 168
1 0.0959281 0.361843 0.00187094 -0.0052442 -0.014153 -0.102874 0.00125 169
1 0.113504 0.369424 0.00138102 0.00505149 0.0142561 0.143189 0.00125 170
1 0.276475 0.345442 0.00209041 0.029269 0.010303 -0.0130439 0.00125 171
1 0.0901975 0.302768 0.00123611 0.0214189 0.0147022 0.143385 0.00125 172
1 0.220255 0.342669 0.00161111 -0.00605196 0.0207451 0.0907372 0.00125 173
1 0.265108 0.31267 0.00243234 0.00704339 -0.0226443 -0.0237783 0.00125 174
1 0.272013 0.381449 0.001515 0.0652926 0.054935 -0.178576 0.00125 175
1 0.0905289 0.222178 0.0017169 -0.0195245 -0.00703526 0.0667736 0.00125 176
1 0.364519 0.221067 0.00141022 0.0101253 -0.0274551 0.207077 0.00125 177
1 0.165353 0.12244 0.00228328 -0.0322723 0.0113851 -0.129271 0.00125 178
1 0.0884733 0.0470458 0.00132012 -0.0378488 -0.0380181 -0.0298924 0.00125 179
1 0.079296 0.0100195 0.00137061 -0.013893 0.0146295 0.134092 0.00125 180
1 0.153784 0.228173 0.00151124 0.0537191 -0.00265398 -0.0251084 0.00125 181
1 0.311676 0.232955 0.00149305 0.032281 -0.0017728 -0.236093 0.00125 182
1 0.30712 0.14748 0.00165919 0.0508147 0.00257626 -0.114319 0.00125 183
1 0.223267 0.195247 0.00162738 -0.0098149 0.0266224 0.0878035 0.00125 184
1 0.368876 0.00717856 0.0015462 -0.0126026 0.0158204 0.188469 0.00125 185
1 0.370059 0.0558349 0.00150169 0.00890592 0.00236651 0.0608167 0.00125 186
1 0.0418973 0.306071 0.0015884 -0.0338893 0.0499627 0.102012 0.00125 187
1 0.0945834 0.266483 0.00176873 0.017106 -0.00056629 0.130984 0.00125 188
1 0.325408 0.109147 0.00137959 0.0309757 -0.00762298 0.179977 0.00125 189
1 0.235894 0.0278597 0.0015755 -0.0209477 -0.0349904 -0.233092 0.00125 190
1 0.323384 0.233074 0.00176925 0.00974818 -0.00504775 -0.237634 0.00125 191
1 0.0619222 0.235954 0.00134503 0.0375987 -0.00577475 0.262015 0.00125 192
1 0.219619 0.0379213 0.00123003 -0.00510475 0.0139253 0.0308204 0.00125 193
1 0.283491 0.141222 0.00148194 -0.0120783 -0.0308169 -0.25496 0.00125 194
1 0.113254 0.0512006 0.00230804 0.0189986 0.0130532 -0.0104137 0.00125 195
1 0.321416 0.209203 0.00131941 0.007064 -0.0322623 0.187106 0.00125 196
1 0.154007 0.192841 0.00139675 0.00210478 0.011455 0.153993 0.00125 197
1 0.142983 0.287015 0.00123979 0.00236601 -0.00640208 -0.223753 0.00125 198
1 0.266919 0.0920277 0.00146254 0.000464955 -0.00683 -0.194748 0.00125 199
1 0.142899 0.241238 0.00141696 -0.00278861 -0.00474453 0.113385 0.00125 200
1 0.0374904 0.201284 0.00210247 -0.00522144 -0.0218612 -0.198818 0.00125 201
1 0.212132 0.154761 0.00178852 -0.00417741 -0.010711 -0.222213 0.00125 202
1 0.253565 0.226031 0.00231004 -0.0317386 0.0228158 -0.152578 0.00125 203
1 0.22093 0.0894662 0.00151975 -0.0594315 0.00337313 -0.100353 0.00125 204
1 0.023149 0.189853 0.00123864 0.00268079 0.00442405 0.179745 0.00125 205
1 0.359088 0.288378 0.00174073 -0.00102658 0.00294173 -0.0899938 0.00125 206
1 0.116317 0.0580406 0.00203435 0.0125246 -0.00946067 -0.0038011 0.00125 207
1 0.107037 0.372674 0.00142459 0.024203 -0.00374618 -0.233657 0.00125 208
1 0.280069 0.00160157 0.0018561 -0.0012454 -0.00642043 -0.209828 0.00125 209
1 0.153725 0.330252 0.00128476 -0.0138212 -0.00271544 -0.218718 0.00125 210
1 0.190979 0.00997665 0.00139672 0.0123989 0.029199 0.183922 0.00125 211
1 0.0353491 0.107462 0.00138606 0.00190534 -0.00272301 -0.23935 0.00125 212
1 0.340144 0.186855 0.00194047 0.00399832 0.0265074 -0.196738 0.00125 213
1 0.290278 0.132137 0.00146307 0.00319206 -0.0121316 0.212922 0.00125 214
1 0.101079 0.0927215 0.00129464 -0.0105109 -0.00468044 -0.237646 0.00125 215
1 0.165565 0.108311 0.00132724 0.0161675 0.00345724 0.0883735 0.00125 216
1 0.312641 0.339028 0.00178868 0.0180176 0.0217157 -0.200395 0.00125 217
1 0.149748 0.377941 0.00126311 0.00786149 -0.0137992 -0.0317057 0.00125 218
1 0.220886 0.236443 0.00171369 0.0203752 0.0148249 -0.221833 0.00125 219
1 0.268314 0.147106 0.00215811 -0.0223948 0.0191432 -0.194594 0.00125 220
1 0.372942 0.380643 0.00201025 0.0216117 -0.0141655 -0.0272864 0.00125 221
1 0.0727486 0.304577 0.00146378 0.0431822 0.00205168 -0.240194 0.00125 222
1 0.0631729 0.310632 0.00172981 0.0205018 -0.0204436 0.113962 0.00125 223
1 0.137947 0.160645 0.00173479 -0.0125935 0.00259326 -0.200899 0.00125 224
1 0.117589 0.0949095 0.00145921 0.00799253 -0.0114362 0.121739 0.00125 225
1 0.0706124 0.178688 0.00126621 -0.0144698 0.00789702 -0.228124 0.00125 226
1 0.32788 0.0365422 0.0014445 0.000674744 0.0202122 0.21807 0.00125 227
1 0.164706 0.294804 0.00133153 -0.0126876 -0.0019646 0.24906 0.00125 228
1 0.052968 0.00375507 0.00209137 -0.0168483 -0.00760067 -0.0848568 0.00125 229
1 0.0526268 0.252628 0.00131764 -0.0193838 -0.0117786 0.226378 0.00125 230
1 0.269515 0.327955 0.00141871 0.0253589 -0.0242573 -0.181298 0.00125 231
1 0.274227 0.0850143 0.0018741 -0.0142011 0.00708287 -0.0769176 0.00125 232
1 0.174254 0.328687 0.00130274 0.0299983 0.0419683 -0.236697 0.00125 233
1 0.228016 0.253732 0.00242621 0.0227661 0.022287 -0.00942659 0.00125 234
1 0.240129 0.221636 0.00144983 -0.0211496 0.00788346 -0.224777 0.00125 235
1 0.140225 0.110453 0.00127046 0.000418922 -0.0105312 -0.0192489 0.00125 236
1 0.351934 0.281621 0.00135694 0.00217031 -0.0159455 -0.0681833 0.00125 237
1 0.28345 0.0887755 0.00129046 0.0017449 -0.00818775 0.185812 0.00125 238
1 0.0888879 0.305411 0.00135979 -0.0459566 0.0196087 0.190807 0.00125 239
1 0.377151 0.342551 0.00129982 -0.00884508 0.0096393 0.20664 0.00125 240
1 0.303602 0.144787 0.00125365 0.00403718 -0.00157702 -0.0153491 0.00125 241
1 0.376203 0.247945 0.00129604 -0.00511737 -0.00591972 -0.234969 0.00125 242
1 0.354518 0.0318326 0.0016639 -0.0247537 0.00922421 -0.191118 0.00125 243
1 0.0234667 0.143362 0.00122894 -0.0137888 0.0120134 0.126443 0.00125 244
1 0.37477 0.0500623 0.00130865 -0.00526298 -0.0111509 0.18096 0.00125 245
1 0.288586 0.104422 0.00144763 -0.0054801 0.00337073 0.167655 0.00125 246
1 0.298159 0.339168 0.00133458 -0.00341548 -0.00577195 -0.226067 0.00125 247
1 0.195444 0.130856 0.00137238 -0.000349093 0.00825049 0.178606 0.00125 248
1 0.0949902 0.172931 0.0013434 0.0283017 0.00323868 0.252111 0.00125 249
1 0.125882 0.247719 0.00140835 -0.00241586 -0.0109261 0.260589 0.00125 250
1 0.342479 0.119676 0.00162777 -0.00240809 0.000434249 -0.282833 0.00125 251
1 0.342998 0.116588 0.00123316 0.0148548 -0.0186848 0.133875 0.00125 252
1 0.0758034 0.000994584 0.00145429 -0.00803728 0.0016191 -0.262609 0.00125 253
1 0.118303 0.00891607 0.00173167 0.0482693 0.0287826 0.11804 0.00125 254
1 0.204438 0.270017 0.00143688 -0.013982 -0.000326803 0.0957421 0.00125 255
1 0.103373 0.156467 0.00124184 0.004816 -0.0038428 0.20909 0.00125 256
1 0.265682 0.162909 0.00156397 0.00713355 0.00337896 -0.171673 0.00125 257
1 0.17138 0.37148 0.00153856 0.0200405 0.0149833 -0.191734 0.00125 258
1 0.226527 0.350994 0.00143203 -0.00687957 0.0528213 -0.09441 0.00125 259
1 0.0135578 0.262696 0.00142485 0.00892503 0.0217924 -0.223746 0.00125 260
1 0.0902501 0.0851612 0.0015534 -0.0131157 -0.0479358 -0.229978 0.00125 261
1 0.227075 0.00159909 0.00128114 -0.00884521 -0.0124687 -0.222485 0.00125 262
1 0.362035 0.347606 0.00123691 0.00658517 -0.00829094 0.162783 0.00125 263
1 0.114093 0.18017 0.0012927 -0.0637882 -0.00141981 -0.0975702 0.00125 264
1 0.0686167 0.186993 0.00147159 -0.00517645 0.0173407 -0.238348 0.00125 265
1 0.337617 0.024857 0.00229116 -0.0102085 -0.0147332 -0.0478839 0.00125 266
1 0.118356 0.355469 0.0015315 0.0116113 0.00929643 0.0685491 0.00125 267
1 0.330689 0.123338 0.00128051 0.00880827 0.00109709 0.191688 0.00125 268
1 0.137997 0.156253 0.00148149 -0.0164671 -0.00949468 0.124939 0.00125 269
1 0.294685 0.154992 0.00123929 0.00722455 -0.010669 0.172589 0.00125 270
1 0.177664 0.302334 0.00123693 0.0464206 0.00803378 0.0741801 0.00125 271
1 0.298877 0.0731919 0.00141098 -0.00338987 -0.0299503 -0.232011 0.00125 272
1 0.236596 0.0947995 0.00170983 1.24076e-05 0.00202772 0.102871 0.00125 273
1 0.0983438 0.184826 0.00132035 -0.0217974 -0.00606655 0.194305 0.00125 274
1 0.11325 0.241783 0.00156277 -0.00538674 0.0165939 -0.229511 0.00125 275
1 0.0850647 0.178711 0.00129517 0.00590822 0.068657 -0.136701 0.00125 276
1 0.18752 0.380653 0.00123697 -0.00206742 0.0040449 -0.204046 0.00125 277
1 0.131468 0.0781474 0.00143129 -0.00580981 0.0363779 -0.182467 0.00125 278
1 0.252069 0.318434 0.00128421 0.00575951 -0.0138997 0.205519 0.00125 279
1 0.105381 0.180702 0.00183168 -0.0046899 -0.00768238 -0.0753953 0.00125 280
1 0.182395 0.00249668 0.0017403 -0.0088126 -0.0384217 -0.0340196 0.00125 281
1 0.371955 0.0578935 0.00139899 0.0385769 -0.0159037 0.15071 0.00125 282
1 0.113317 0.327935 0.0013296 0.00565342 0.00673217 0.233302 0.00125 283
1 0.102034 0.187492 0.00141733 0.00364192 0.00555336 0.170318 0.00125 284
1 0.356493 0.27591 0.00170215 0.0309175 0.00589252 -0.0806226 0.00125 285
1 0.367675 0.126287 0.0021935 0.00228646 -0.0940732 -0.158063 0.00125 286
1 0.233232 0.198907 0.00148587 0.0226037 0.0385428 0.0343609 0.00125 287
1 0.282697 0.188939 0.00182584 0.0207445 -0.022824 -0.0797434 0.00125 288
1 0.354535 0.0881727 0.00226217 0.0350597 -0.0120908 -0.159336 0.00125 289
1 0.102077 0.0111235 0.00156756 0.0208316 0.00692114 -0.191989 0.00125 290
1 0.263406 0.113546 0.00172621 0.002721 -0.01066 -0.0424169 0.00125 291
1 0.354596 0.0171466 0.0013211 -0.0495888 0.0217747 -0.236547 0.00125 292
1 0.0477361 0.31885 0.00151136 -0.0320928 -0.0160029 0.123997 0.00125 293
1 0.0341044 0.364426 0.00174463 -0.0252468 -0.00394742 -0.196073 0.00125 294
1 0.0324312 0.10262 0.00132944 0.0159784 0.0124531 -0.0263344 0.00125 295
1 0.137519 0.127547 0.00158737 0.000496723 -0.0165225 0.0719356 0.00125 296
1 0.00721509 0.106037 0.00124964 -0.00870263 -0.0128861 -0.277087 0.00125 297
1 0.296363 0.264052 0.00179699 0.0143275 0.0186437 -0.0667321 0.00125 298
1 0.241831 0.101137 0.00136864 0.052295 0.0175467 -0.127973 0.00125 299
1 0.21886 0.07743 0.00134331 -0.0160662 -0.00369354 0.189737 0.00125 300
1 0.212527 0.334286 0.0014695 -0.000686112 -0.0180102 0.0827209 0.00125 301
1 0.286594 0.185657 0.00162488 0.0205015 -0.0524432 0.0831395 0.00125 302
1 0.33551 0.198805 0.00164056 0.0138748 -0.0049807 -0.0891396 0.00125 303
1 0.296252 0.0903302 0.00123294 -0.00295262 -0.016877 0.122897 0.00125 304
1 0.260683 0.377708 0.00226945 -0.00534742 -0.0434197 0.0187309 0.00125 305
1 0.295897 0.329984 0.00167314 0.00760205 -0.0281603 -0.0985825 0.00125 306
1 0.169715 0.365098 0.00145139 -0.0230159 0.0173912 -0.239023 0.00125 307
1 0.0977736 0.177343 0.0014228 -0.0208534 0.0287802 -0.246118 0.00125 308
1 0.343193 0.0687775 0.00125198 -0.0175518 -0.00907972 0.0921377 0.00125 309
1 0.220883 0.114034 0.00151601 -0.0108635 -0.0111664 -0.187199 0.00125 310
1 0.0181628 0.000308432 0.0018586 -0.0432223 -0.00964814 -0.0595309 0.00125 311
1 0.129027 0.29457 0.00131663 -0.0100966 -0.0327209 0.23411 0.00125 312
1 0.0594116 0.186602 0.0012958 0.0253863 -0.0436784 -0.0155568 0.00125 313
1 0.225268 0.177011 0.00168538 -0.00505133 -0.0281446 -0.171248 0.00125 314
1 0.28066 0.208097 0.00155064 -0.0133345 0.00556645 -0.178589 0.00125 315
1 0.0569324 0.271279 0.00134357 -0.0104428 0.0149223 -0.235741 0.00125 316
1 0.277795 0.120088 0.00162383 0.016415 -0.0700526 -0.169977 0.00125 317
1 0.112137 0.121792 0.00143805 0.00450397 0.00734846 0.210552 0.00125 318
1 0.00699565 0.209413 0.00151986 -0.00670885 -0.00198091 -0.230928 0.00125 319
1 0.222437 0.00828303 0.00245204 0.00110527 -0.0329176 -0.0411087 0.00125 320
1 0.152178 0.236342 0.00134023 -0.00453158 0.0386975 -0.262499 0.00125 321
1 0.331417 0.357504 0.00141847 -0.0184986 -0.00906246 -0.235862 0.00125 322
1 0.355922 0.239005 0.00223555 -0.00581669 -0.00544839 -0.0612049 0.00125 323
1 0.193041 0.107707 0.00246437 -0.0525547 -0.021754 -0.0391725 0.00125 324
1 0.377334 0.231189 0.00144672 -0.0099736 0.0129003 0.11459 0.00125 325
1 0.367747 0.186759 0.00172597 -0.0352521 -0.0155411 -0.227909 0.00125 326
1 0.333423 0.326697 0.00128814 -0.0169227 0.0045081 -0.234986 0.00125 327
1 0.00492776 0.254883 0.00165205 -0.0276841 0.0378089 -0.12845 0.00125 328
1 0.211975 0.285864 0.00131892 0.0378166 0.0170472 -0.232413 0.00125 329
1 0.0795664 0.135515 0.00128279 0.00622535 -0.011306 -0.255078 0.00125 330
1 0.107452 0.266783 0.00123444 0.0268533 -0.00504074 0.227603 0.00125 331
1 0.29168 0.152811 0.00129059 0.00852099 0.0207553 -0.232269 0.00125 332
1 0.0803749 0.0796998 0.00151831 0.00533161 0.0256351 0.101116 0.00125 333
1 0.161224 0.185459 0.00133146 0.0114937 -0.00331995 0.19025 0.00125 334
1 0.149039 0.094149 0.00236403 0.018055 0.0165373 -0.104623 0.00125 335
1 0.154778 0.166321 0.00216611 -0.00885926 0.0104993 -0.157558 0.00125 336
1 0.0879822 0.0527394 0.00139831 -0.00930316 0.0236456 0.216347 0.00125 337
1 0.332513 0.259255 0.00135947 -0.0220923 -0.0063721 -0.242492 0.00125 338
1 0.285765 0.371306 0.00148859 0.0305171 -0.0102999 -0.085946 0.00125 339
1 0.138539 0.0524659 0.00173498 0.0130195 -0.00132656 0.108564 0.00125 340
1 0.224145 0.286749 0.00129413 -0.0842275 0.0200664 0.216355 0.00125 341
1 0.00579864 0.223736 0.00149926 0.0202771 -0.022117 0.156033 0.00125 342
1 0.0452557 0.0713504 0.00155395 -0.0249794 0.00755812 0.0984692 0.00125 343
1 0.140939 0.31323 0.00229033 -0.0105267 0.00522916 0.0283523 0.00125 344
1 0.21314 0.122758 0.00204958 -0.00924608 -0.0115225 -0.174354 0.00125 345
1 0.209078 0.0251031 0.00124357 0.00328126 -0.00914898 -0.214058 0.00125 346
1 0.00674278 0.0797953 0.00189852 -0.0102547 0.00400723 -0.243488 0.00125 347
1 0.185494 0.263289 0.00127909 0.00583537 0.00553107 -0.22988 0.00125 348
1 0.0325811 0.0209094 0.00139224 0.00259588 0.0146493 0.182085 0.00125 349
1 0.142269 0.049706 0.00164003 -0.034104 0.0141015 -0.072929 0.00125 350
1 0.191007 0.289554 0.0014088 0.00991274 -0.0178518 0.225143 0.00125 351
1 0.146691 0.280592 0.00225761 -0.0189621 -0.00567279 -0.139217 0.00125 352
1 0.0414764 0.318592 0.00215941 0.0061991 0.00410547 -0.0353041 0.00125 353
1 0.247452 0.291592 0.00123105 0.0173043 -0.00523357 -0.0838996 0.00125 354
1 0.0373649 0.184824 0.00128008 0.00380571 0.0157311 -0.253347 0.00125 355
1 0.206749 0.338015 0.00220535 -0.0106821 0.00645979 -0.152182 0.00125 356
1 0.168098 0.0886533 0.00138035 -0.00562684 -0.0517985 -0.22711 0.00125 357
1 0.138283 0.0739881 0.00137338 -0.00845513 0.0216432 -0.23382 0.00125 358
1 0.179377 0.120853 0.00201457 -0.0148413 -0.0230323 -0.0335508 0.00125 359
1 0.0243941 0.282339 0.00180028 0.0134522 0.00761055 -0.0362876 0.00125 360
1 0.366003 0.204281 0.00135794 0.00862836 -0.00412404 0.164993 0.00125 361
1 0.0482007 0.267776 0.00184557 -0.00632663 -0.0200076 -0.212006 0.00125 362
1 0.0433099 0.222165 0.00131537 0.0239184 -0.0304972 0.177625 0.00125 363
1 0.172684 0.0525296 0.00134331 -0.014188 0.0074981 0.166216 0.00125 364
1 0.358771 0.366317 0.00125871 0.0125933 -0.00866686 -0.274977 0.00125 365
1 0.0163868 0.242049 0.00124364 0.0354911 -0.0267901 -0.0635335 0.00125 366
1 0.128846 0.3075 0.00123549 0.00638032 -0.00169699 0.151609 0.00125 367
1 0.0563856 0.080954 0.00157397 0.00280505 -0.011485 -0.229088 0.00125 368
1 0.0152299 0.110012 0.00135578 -0.00946855 0.0110443 0.0495743 0.00125 369
1 0.0610837 0.140889 0.00122785 0.00384584 0.00249598 -0.000943585 0.00125 370
1 0.166874 0.255959 0.00140081 0.0580485 0.00636999 -0.232256 0.00125 371
1 0.135051 0.236895 0.00124925 0.0247241 -0.00368987 0.228598 0.00125 372
1 0.166858 0.213405 0.00240923 -0.00518974 -0.0149256 -0.0613597 0.00125 373
1 0.0740564 0.203647 0.0014546 -0.00628542 0.00557937 -0.197098 0.00125 374
1 0.362 0.32986 0.00154871 0.00418418 0.00766036 0.0945197 0.00125 375
1 0.0700845 0.333433 0.00138837 0.0258274 -0.0251989 -0.249886 0.00125 376
1 0.371641 0.196285 0.00147477 0.0049026 -0.00851958 0.0811198 0.00125 377
1 0.263662 0.117411 0.00134878 0.0128782 0.00909534 -0.236875 0.00125 378
1 0.272743 0.186604 0.00162023 0.0128834 0.0305835 -0.280378 0.00125 379
1 0.167043 0.168828 0.00127604 -0.000706351 -0.00487325 -0.0155124 0.00125 380
1 0.168576 0.0999005 0.00128693 -0.00794354 -0.00464284 -0.241865 0.00125 381
1 0.341769 0.126021 0.00132456 0.0348168 2.06859e-05 0.197158 0.00125 382
1 0.0126213 0.140443 0.00130316 -0.0141743 0.00803413 0.181449 0.00125 383
1 0.0946503 0.372177 0.00125403 -0.00394426 -0.00820698 -0.235404 0.00125 384
1 0.136605 0.0177611 0.00174212 -0.00506222 -0.00482152 -0.0911377 0.00125 385
1 0.159796 0.20489 0.00127409 0.015574 0.00767792 0.126223 0.00125 386
1 0.0231108 0.0530809 0.00122693 0.00677364 0.022772 0.0840444 0.00125 387
1 0.0833774 0.307424 0.00139826 0.0158962 -0.0153393 0.177938 0.00125 388
1 0.0975254 0.338322 0.00244095 0.0373766 0.0521513 0.0251038 0.00125 389
1 0.172352 0.164803 0.0023886 -0.0411164 0.0871932 -0.102781 0.00125 390
1 0.223324 0.150377 0.00127878 -0.0157413 -0.0175787 0.20654 0.00125 391
1 0.0377238 0.349746 0.00146301 0.0189532 -0.0219668 -0.068031 0.00125 392
1 0.0743111 0.117297 0.0015305 -0.00496367 0.0188496 0.103141 0.00125 393
1 0.151385 0.209246 0.00131188 0.00932981 0.00564572 0.234319 0.00125 394
1 0.235153 0.147476 0.00163003 0.0176654 -0.00346598 -0.0518199 0.00125 395
1 0.218787 0.164114 0.00135098 -0.0245622 -0.00527116 0.177646 0.00125 396
1 0.314013 0.300868 0.00124157 -0.0165003 0.0321947 0.195147 0.00125 397
1 0.22265 0.301536 0.00159211 0.00692674 -0.0151309 0.140151 0.00125 398
1 0.016088 0.321397 0.00204827 -0.0256286 -0.030107 -0.126442 0.00125 399