ITEM: TIMESTEP
1000000
ITEM: NUMBER OF ATOMS
10000
ITEM: BOX BOUNDS pp pp ff
0.0000000000000000e+00 3.1880652250000002e-01
0.0000000000000000e+00 3.1880652250000002e-01
-1.2500000000000001e-02 1.2500000000000001e-02
ITEM: ATOMS type x y z vx vy vz radius id
1 0.0946636 0.250334 0.00169834 0.00420244 0.0403215 0.109202 0.00125 1
1 0.0135681 0.0459797 0.00123312 -0.00489815 0.0137983 0.175798 0.00125 2
1 0.300789 0.0727779 0.00147531 -0.0299992 0.00537489 0.120216 0.00125 3
1 0.0667045 0.312793 0.00122981 -0.0265789 0.00703837 0.0636831 0.00125 4
1 0.100554 0.0744 0.00165923 -0.0342222 -0.00635572 -0.211891 0.00125 5
1 0.0725088 0.183727 0.0017303 -0.0192417 -0.0334437 -0.216437 0.00125 6
1 0.195861 0.0663865 0.00122787 0.041059 0.000853542 0.100768 0.00125 7
1 0.261058 0.193357 0.00138834 0.0147381 -0.00189311 -0.23708 0.00125 8
1 0.15521 0.285019 0.00159995 -0.0832798 0.0197245 -0.19985 0.00125 9
1 0.225318 0.295568 0.00161697 -0.0682691 0.0744842 0.00741398 0.00125 10
1 0.16972 0.264585 0.00238641 0.0148431 -0.00922961 -0.0491994 0.00125 11
1 0.208005 0.230631 0.0014667 -0.0388572 0.0150415 0.112476 0.00125 12
1 0.0720425 0.195851 0.00188371 0.00901056 -0.0820227 -0.205336 0.00125 13
1 0.0803295 0.0434932 0.00197963 -0.0123762 0.0358324 -0.101434 0.00125 14
1 0.252168 0.0270447 0.00146731 0.0280981 -0.000831261 0.158648 0.00125 15
1 0.0926899 0.169805 0.00130605 0.0080199 -0.00732373 0.227918 0.00125 16
1 0.0321853 0.0166346 0.00128929 0.00552153 0.0201587 -0.246656 0.00125 17
1 0.292164 0.248588 0.0018541 0.00720995 0.00347504 -0.0684247 0.00125 18
1 0.28028 0.0232161 0.00148256 -0.0224537 0.0126886 -0.187026 0.00125 19
1 0.213806 0.224747 0.00201186 0.0224922 0.0249003 -0.189387 0.00125 20
1 0.0497298 0.0706318 0.00232129 -0.0156587 -0.00804403 -0.122476 0.00125 21
1 0.22146 0.270529 0.00135311 -0.0323852 -0.0472044 0.0591989 0.00125 22
1 0.178038 0.112259 0.00131701 0.000596126 -0.0390096 -0.261518 0.00125 23
1 0.0303326 0.175829 0.00218414 0.0148817 0.00182602 -0.190336 0.00125 24
1 0.0263524 0.19371 0.00134071 0.00184664 0.00871311 -0.0512142 0.00125 25
1 0.0758712 0.0792162 0.00123104 -0.0028042 -0.0195633 0.179111 0.00125 26
1 0.318654 0.0907878 0.00144926 0.0170821 0.031182 0.137981 0.00125 27
1 0.0477774 0.227556 0.00126251 0.00597096 0.027029 0.264394 0.00125 28
1 0.0542008 0.107081 0.00151072 0.00117205 -0.0294819 -0.236492 0.00125 29
1 0.121932 0.127451 0.00232554 0.000950292 0.0136806 -0.0621731 0.00125 30
1 0.190075 0.23623 0.00150205 0.000429227 -0.0196782 0.142162 0.00125 31
1 0.0807857 0.257824 0.00149745 0.0559744 -0.00593592 -0.270233 0.00125 32
1 0.142399 0.100202 0.00134711 0.000277509 -0.00821541 -0.101618 0.00125 33
1 0.247404 0.295718 0.00224484 -0.00531054 -0.0416899 -0.0755332 0.00125 34
1 0.088528 0.21589 0.00160056 0.0038864 0.0149316 0.208533 0.00125 35
1 0.140339 0.0925704 0.0014279 0.0029471 0.00597674 -0.222459 0.00125 36
1 0.287388 0.0390653 0.00248652 -0.00173527 0.00492855 0.0268262 0.00125 37
1 0.309358 0.202601 0.00127173 0.043112 -0.00787216 -0.013653 0.00125 38
1 0.0380558 0.19909 0.00173535 0.00579365 0.0247579 -0.235257 0.00125 39
1 0.0910903 0.0942473 0.00161656 0.00278907 -0.0260603 -0.0895517 0.00125 40
1 0.27722 0.137432 0.00125079 0.0192866 -0.0348887 0.206301 0.00125 41
1 0.272058 0.00334776 0.00140795 -0.0145856 0.00416194 0.193888 0.00125 42
1 0.219621 0.281132 0.00171418 0.0152714 0.00914991 -0.220511 0.00125 43
1 0.182154 0.176558 0.00201165 -0.0304143 -0.0320869 -0.116138 0.00125 44
1 0.233172 0.173454 0.00159254 0.0172772 0.0110167 -0.207481 0.00125 45
1 0.0302446 0.292167 0.00170949 -0.0349199 0.00322882 -0.122582 0.00125 46
1 0.0345583 0.104332 0.00174182 0.000849102 -0.0311779 -0.220687 0.00125 47
1 0.154286 0.153427 0.00127589 0.0250368 -0.0532447 -0.188797 0.00125 48
1 0.00352376 0.134366 0.00140747 -0.00907766 0.0582386 -0.275351 0.00125 49
1 0.178375 0.204386 0.00128496 -0.0146881 0.0150159 -0.2917 0.00125 50
1 0.187668 0.224711 0.00160972 -0.011429 0.0132171 -0.176375 0.00125 51
1 0.00949245 0.14204 0.0014866 -0.000102758 6.75068e-05 0.143101 0.00125 52
1 0.2238 0.156433 0.00217145 0.024329 -0.0122534 -0.072941 0.00125 53
1 0.158501 0.29795 0.00160879 0.00833023 0.00177421 -0.277251 0.00125 54
1 0.18386 0.0580423 0.00142608 0.0415068 -0.00246877 0.158232 0.00125 55
1 0.281176 0.197547 0.00125948 -0.0270876 -0.0386669 -0.202909 0.00125 56
1 0.294686 0.233709 0.00200266 0.0137592 0.0291073 -0.166674 0.00125 57
1 0.166305 0.221321 0.00133946 0.00877981 -0.0123327 -0.21035 0.00125 58
1 0.0742678 0.3127 0.00226312 0.0287828 0.0367851 0.00940268 0.00125 59
1 0.0151545 0.125823 0.00130333 -0.0382483 -0.0385951 -0.189336 0.00125 60
1 0.276397 0.152182 0.00247369 0.0289883 -0.0438727 -0.0157023 0.00125 61
1 0.272625 0.12107 0.00203689 -0.0225606 0.0009383 -0.181187 0.00125 62
1 0.169634 0.0829331 0.00214851 0.0102177 -0.0496032 -0.044746 0.00125 63
1 0.00428547 0.145563 0.00168008 -7.19698e-05 0.00348358 -0.087329 0.00125 64
1 0.0438082 0.0615753 0.00146996 0.0160117 0.0431996 0.199922 0.00125 65
1 0.172583 0.0229931 0.0023935 -0.00308135 0.0309869 -0.0406236 0.00125 66
1 0.289551 0.136529 0.00150583 -0.0337303 -0.0103765 -0.1769 0.00125 67
1 0.0651496 0.0208728 0.00187948 -0.0314788 0.0222834 -0.241647 0.00125 68
1 0.121286 0.170419 0.00146498 0.0120072 -0.0358313 -0.105379 0.00125 69
1 0.0460836 0.136424 0.00125175 -0.0573093 -0.00876673 0.12891 0.00125 70
1 0.190779 0.315558 0.00128769 0.0480309 -0.0290879 0.240718 0.00125 71
1 0.0554593 0.293666 0.00162678 0.042933 0.00225309 -0.147358 0.00125 72
1 0.252654 0.122957 0.00183563 -0.0107164 -0.0345697 -0.109189 0.00125 73
1 0.0786371 0.24506 0.00164878 0.0304548 -0.0655852 0.109622 0.00125 74
1 0.170031 0.0343561 0.00138486 0.000479948 0.00379405 0.171344 0.00125 75
1 0.14108 0.0508297 0.00131411 -0.00672786 -0.0173231 -0.220856 0.00125 76
1 0.317576 0.0998627 0.00199574 -0.00508827 0.00853004 -0.0232414 0.00125 77
1 0.0485705 0.143497 0.0019082 0.00263754 -0.000368954 -0.081831 0.00125 78
1 0.0933115 0.288592 0.00187246 -0.0112714 -0.00678596 -0.0118126 0.00125 79
1 0.00807391 0.0767624 0.00124426 -0.030566 0.0171864 -0.236144 0.00125 80
1 0.29407 0.278999 0.00140809 0.0534408 0.0208055 0.135278 0.00125 81
1 0.00715992 0.0201582 0.00126363 0.0727502 -0.0188803 -0.13228 0.00125 82
1 0.0332113 0.219754 0.00144525 0.00122275 0.0114141 -0.107696 0.00125 83
1 0.282858 0.147897 0.00138164 -0.0110092 0.00683119 0.215623 0.00125 84
1 0.221692 0.226381 0.00168986 -0.072475 0.00725881 -0.232048 0.00125 85
1 0.134197 0.0461571 0.00245351 -0.0660196 -0.0463312 -0.0238169 0.00125 86
1 0.229495 0.0385102 0.00136093 -0.0760802 0.0493828 -0.102465 0.00125 87
1 0.156282 0.155418 0.00172055 -0.00606305 0.0218177 -0.227812 0.00125 88
1 0.282168 0.18344 0.0015092 0.0321846 0.0315582 -0.194236 0.00125 89
1 0.193463 0.191701 0.00139389 -0.00385879 -0.0639035 0.211854 0.00125 90
1 0.0188742 0.00447089 0.00134993 -0.0107468 0.00299745 -0.0841655 0.00125 91
1 0.164089 0.313448 0.00126119 -0.0278308 -0.00210733 0.1953 0.00125 92
1 0.0500632 0.158732 0.00125206 -0.0405944 -0.0148973 -0.21315 0.00125 93
1 0.305164 0.194814 0.00240586 0.0366366 -0.00689292 -0.0313976 0.00125 94
1 0.265833 0.0138364 0.00198717 0.0296594 0.0341964 -0.192013 0.00125 95
1 0.0269728 0.0316237 0.00123459 0.00724404 0.000787092 -0.153345 0.00125 96
1 0.178294 0.231895 0.00220798 0.0544647 -0.0850313 -0.054885 0.00125 97
1 0.291969 0.0540527 0.00209475 -0.0209075 0.0239813 0.00674574 0.00125 98
1 0.285029 0.153317 0.00150403 -0.0271715 -0.014743 -0.16309 0.00125 99
1 0.0664207 0.201029 0.00239053 -0.0413694 0.0125782 -0.0448031 0.00125 100
1 0.170606 0.270046 0.00131534 -0.00228733 0.024483 -0.208694 0.00125 101
1 0.126306 0.303956 0.0016207 0.0126205 -0.0169764 0.10119 0.00125 102
1 0.0538465 0.243124 0.00165005 -0.0100206 -0.0172142 -0.23992 0.00125 103
1 0.182874 0.126665 0.00138886 -0.00177558 0.0213493 -0.204622 0.00125 104
1 0.0267324 0.0674538 0.00158551 -0.000552179 0.011123 -0.245689 0.00125 105
1 0.129791 0.0619343 0.00154795 0.0201179 -0.012927 0.15382 0.00125 106
1 0.250579 0.303479 0.00124055 -0.00477109 -0.00662013 -0.234709 0.00125 107
1 0.0285729 0.208307 0.00129519 0.00409462 -0.00451333 0.274204 0.00125 108
1 0.165752 0.278575 0.00162323 -0.0300932 -0.051101 0.0932122 0.00125 109
1 0.0977773 0.26346 0.0018819 0.0034549 0.00560422 -0.144723 0.00125 110
1 0.191364 0.0768171 0.00124279 0.0116248 0.0105826 0.197724 0.00125 111
1 0.114549 0.155782 0.00246839 -0.0206482 -0.00187079 -0.062874 0.00125 112
1 0.144181 0.0417208 0.00149386 -0.0097072 0.0313517 0.0568943 0.00125 113
1 0.236814 0.121995 0.0012456 0.0507799 -0.0595176 -0.290508 0.00125 114
1 0.00526291 0.218432 0.00231811 -0.00772686 -0.0758775 -0.0268089 0.00125 115
1 0.298711 0.0306566 0.00142323 0.0257586 0.0138169 -0.195806 0.00125 116
1 0.305985 0.312521 0.0013501 -0.0342457 0.00462602 -0.266706 0.00125 117
1 0.0241128 0.192026 0.00184925 -0.0176786 -0.0392185 -0.15924 0.00125 118
1 0.155469 0.00934961 0.00132967 -0.0213139 0.029245 0.259993 0.00125 119
1 0.127732 0.227655 0.0021491 0.0212452 0.0209604 0.0110019 0.00125 120
1 0.270023 0.191566 0.00175252 0.0410284 0.0110306 -0.151859 0.00125 121
1 0.260684 0.115469 0.0013468 -0.0131368 -0.0382739 -0.212237 0.00125 122
1 0.198787 0.236993 0.00129332 -0.0201215 -0.014219 -0.312696 0.00125 123
1 0.123328 0.0275003 0.00125084 -0.0367332 -0.0186322 -0.191117 0.00125 124
1 0.177748 0.287855 0.0017339 0.0327518 0.0374239 -0.252895 0.00125 125
1 0.18548 0.115789 0.00155928 -0.0254437 -0.0134293 0.107699 0.00125 126
1 0.13855 0.172858 0.00165582 0.00236834 0.017228 0.0898787 0.00125 127
1 0.027522 0.132024 0.00131484 -0.00786151 0.0354062 0.189512 0.00125 128
1 0.0342991 0.107138 0.00134605 -0.00876022 -0.0107357 -0.219405 0.00125 129
1 0.217291 0.193167 0.00131773 -0.0555324 -0.0867007 -0.1162 0.00125 130
1 0.22726 0.113903 0.00150911 0.0226118 -0.00914133 0.085596 0.00125 131
1 0.132376 0.304603 0.00141315 0.0175509 0.0382862 -0.132682 0.00125 132
1 0.14547 0.309005 0.00138525 0.0299952 -0.0492934 -0.215411 0.00125 133
1 0.308363 0.11041 0.00151637 -0.0370316 0.014387 0.137986 0.00125 134
1 0.180761 0.239926 0.00134961 0.000591706 0.000438552 -0.236751 0.00125 135
1 0.144604 0.10596 0.00169747 -0.0304568 -0.0653637 -0.158887 0.00125 136
1 0.250988 0.100783 0.00133998 0.0517124 0.0163955 0.0093357 0.00125 137
1 0.0574425 0.0535475 0.00198028 0.0221859 -0.0133028 -0.0638161 0.00125 138
1 0.242053 0.162957 0.00125867 0.000349972 0.0239551 -0.233111 0.00125 139
1 0.278386 0.237328 0.001698 -0.00196247 0.000685747 -0.259322 0.00125 140
1 0.247061 0.187971 0.00126412 -0.00779962 -0.0153442 0.260647 0.00125 141
1 0.00061231 0.0949939 0.00132966 0.0213778 0.00992348 -0.246043 0.00125 142
1 0.278932 0.223739 0.00173405 0.010196 -0.0102049 -0.209908 0.00125 143
1 0.309953 0.253466 0.00125979 0.0120408 -0.011031 0.209529 0.00125 144
1 0.0531589 0.231089 0.00128046 -0.00720918 -0.124867 -0.17886 0.00125 145
1 0.164624 0.0875166 0.00191627 0.00886257 0.00766476 -0.156244 0.00125 146
1 0.124211 0.0871916 0.00171808 -0.00176987 -0.0295427 -0.155716 0.00125 147
1 0.290156 0.0404094 0.00138751 -0.0694235 -0.026756 -0.144047 0.00125 148
1 0.107747 0.161923 0.00185523 0.0375992 -0.00944697 -0.210497 0.00125 149
1 0.267727 0.169489 0.00147297 -0.0316541 -0.0138105 0.249401 0.00125 150
1 0.195134 0.18152 0.00127332 0.0213623 0.00450975 0.199829 0.00125 151
1 0.00884781 0.215631 0.00148394 -0.0176604 0.0260408 0.119402 0.00125 152
1 0.27245 0.134646 0.00213315 -0.0100321 0.0301052 -0.0595733 0.00125 153
1 0.146713 0.270592 0.00128521 -0.00636554 -0.0123467 -0.309183 0.00125 154
1 0.237415 0.128839 0.00216087 0.0132504 0.0318414 -0.00661279 0.00125 155
1 0.290961 0.214052 0.00128052 0.0502567 0.0113486 0.203814 0.00125 156
1 0.226473 0.165019 0.00151948 -0.0114766 -0.00947696 0.0655415 0.00125 157
1 0.107841 0.104992 0.00145975 0.0121408 -0.0390413 0.128158 0.00125 158
1 0.157784 0.112152 0.00123069 0.0153066 0.00524028 0.0851655 0.00125 159
1 0.0772934 0.0301638 0.00142433 0.00762774 0.00941239 0.168266 0.00125 160
1 0.055082 0.0120099 0.00125283 -0.00452837 -0.0192055 0.0761872 0.00125 161
1 0.120907 0.116806 0.00220869 -0.0181191 0.100675 -0.104718 0.00125 162
1 0.25429 0.230273 0.00211984 0.0241289 0.0250021 -0.168184 0.00125 163
1 0.0972132 0.0734427 0.00188767 0.00731146 0.0106119 -0.0828263 0.00125 164
1 0.0075673 0.249558 0.00134097 -0.000654444 -0.0201265 0.205171 0.00125 165
1 0.0346592 0.125693 0.00142896 -0.00227345 -0.0134938 0.163188 0.00125 166
1 0.0522634 0.204263 0.00129596 0.00562966 -0.0002736 0.192974 0.00125 167
1 0.204163 0.105655 0.00128144 0.0173759 0.00651826 0.0511481 0.00125 168
1 0.207287 0.162692 0.00149032 0.0111078 -0.0235918 -0.228526 0.00125 169
1 0.193665 0.0955283 0.00159519 0.0415895 -0.00436946 0.141304 0.00125 170
1 0.0102934 0.285189 0.00215413 0.0463127 -0.0164675 -0.0525717 0.00125 171
1 0.0117503 0.0886455 0.00219798 0.0212049 0.0135677 -0.151524 0.00125 172
1 0.13159 0.207089 0.00205179 -0.0287156 -0.132999 -0.103016 0.00125 173
1 0.261182 0.0292904 0.00147756 -0.0916248 -0.0707505 0.00867736 0.00125 174
1 0.0801753 0.0618794 0.00122887 -0.000520923 -0.00546351 0.0572466 0.00125 175
1 0.302058 0.289686 0.00195559 0.0165542 0.0175771 -0.0320454 0.00125 176
1 0.112399 0.245919 0.00146889 0.0132378 -0.0286966 0.170049 0.00125 177
1 0.0233754 0.274114 0.00176509 -0.00473636 0.0183365 -0.22231 0.00125 178
1 0.227622 0.0521731 0.00139617 0.0105676 0.00448102 -0.0816479 0.00125 179
1 0.118753 0.0831431 0.00132004 -0.0236711 0.0272109 0.227629 0.00125 180
1 0.125512 0.281778 0.00125024 0.0118128 0.0194873 0.178701 0.00125 181
1 0.223585 0.00749184 0.00161263 -0.0487756 -0.000153306 -0.196687 0.00125 182
1 0.141978 0.0757808 0.00246865 -0.0131053 0.0155995 -0.0411042 0.00125 183
1 0.310154 0.011842 0.00154511 0.0184236 -0.0359047 -0.0747039 0.00125 184
1 0.023427 0.0268613 0.00229592 -0.00679479 0.0382946 -0.0297831 0.00125 185
1 0.00749014 0.213065 0.00170603 0.0208447 -0.00688881 0.0672918 0.00125 186
1 0.128784 0.253214 0.00135114 -0.0215072 -0.015973 -0.217523 0.00125 187
1 0.203652 0.155053 0.00227044 -0.0114499 -0.0230861 -0.0629408 0.00125 188
1 0.225035 0.105541 0.00132059 0.023052 -0.0267284 0.248926 0.00125 189
1 0.269993 0.0510837 0.00129158 0.0346707 0.0112776 0.177495 0.00125 190
1 0.29985 0.0594946 0.00134728 -0.0072791 0.026303 -0.22405 0.00125 191
1 0.176656 0.160968 0.00140249 0.0155478 -0.0324562 -0.177938 0.00125 192
1 0.303789 0.101909 0.00136696 0.0202812 0.0185614 -0.220001 0.00125 193
1 0.199239 0.262861 0.00170127 0.00380345 -0.021446 0.0773201 0.00125 194
1 0.127798 0.292888 0.00125454 0.0169634 0.00727407 0.202837 0.00125 195
1 0.102512 0.0635077 0.00178662 -0.0177308 -0.0384365 -0.253993 0.00125 196
1 0.0160419 0.139679 0.00124072 0.014732 0.0161511 0.196273 0.00125 197
1 0.0331372 0.260591 0.00160363 0.0116652 0.0119302 -0.181828 0.00125 198
1 0.208264 0.253603 0.00127903 -0.00863263 -0.00745461 0.188633 0.00125 199
1 0.137468 0.00457238 0.00156272 0.00137886 0.0283398 -0.251169 0.00125 200
1 0.238659 0.285437 0.00249828 -0.0232789 -0.0146197 0.027754 0.00125 201
1 0.171618 0.0725024 0.00169435 -0.0113997 0.0130961 0.106864 0.00125 202
1 0.117687 0.0237897 0.00176992 0.0282896 -0.00315253 -0.0626831 0.00125 203
1 0.0915688 0.300016 0.00127946 0.0180466 0.0130549 -0.239254 0.00125 204
1 0.0336043 0.302291 0.0015029 -0.0326602 -0.021583 0.0799727 0.00125 205
1 0.15112 0.0640864 0.00128057 0.0148623 -0.0149453 -0.234723 0.00125 206
1 0.223077 0.209348 0.00231037 0.0586745 0.0613968 -0.0881455 0.00125 207
1 0.133882 0.0297212 0.00170731 -0.029526 -0.0125109 -0.174465 0.00125 208
1 0.106095 0.0863616 0.00161494 -0.0304253 0.013357 -0.0897733 0.00125 209
1 0.295015 0.073767 0.00241304 0.00296086 -0.00458234 -0.106672 0.00125 210
1 0.193651 0.0471 0.00190914 -0.0332897 -0.0411664 -0.0874611 0.00125 211
1 0.0773878 0.220629 0.00195026 -0.00659987 0.0175604 -0.0642593 0.00125 212
1 0.0855521 0.17587 0.00141197 -0.0262384 -0.0102136 0.114314 0.00125 213
1 0.309065 0.0355674 0.00148152 0.0281952 -0.041008 -0.251043 0.00125 214
1 0.0143258 0.076439 0.00137279 0.0504268 -0.0214248 0.0309316 0.00125 215
1 0.185313 0.2888 0.00183405 -0.0386491 -0.0148291 -0.228668 0.00125 216
1 0.118448 0.162338 0.00135016 -0.0371213 -0.0819071 0.241386 0.00125 217
1 0.0679941 0.0194477 0.00183107 0.00766973 -0.0330911 -0.217021 0.00125 218
1 0.084979 0.0682283 0.00212545 -0.0113683 0.0326146 -0.17312 0.00125 219
1 0.0152482 0.238213 0.00146142 -0.0101625 -0.0265979 -0.232106 0.00125 220
1 0.188143 0.0944303 0.00133647 0.00564287 0.0257224 -0.00253447 0.00125 221
1 0.122978 0.295617 0.00132868 -0.0122977 0.0259592 0.0546492 0.00125 222
1 0.0190314 0.0417477 0.00167005 0.0259104 0.0120813 -0.163883 0.00125 223
1 0.232927 0.15571 0.00135169 0.0123396 -0.038351 0.169829 0.00125 224
1 0.121579 0.0203066 0.00154477 0.0623449 0.00295614 -0.234805 0.00125 225
1 0.052773 0.25033 0.00125724 -0.0507579 -0.00998167 0.176693 0.00125 226
1 0.16445 0.23463 0.00149337 -0.00641857 0.0265593 0.12349 0.00125 227
1 0.294131 0.0447567 0.00143727 -0.063732 0.0387407 -0.245437 0.00125 228
1 0.229652 0.158767 0.00158807 0.00433119 0.000417463 -0.101745 0.00125 229
1 0.202933 0.150001 0.00130381 -0.00632951 0.0126149 0.0585087 0.00125 230
1 0.0632026 0.198113 0.00133792 -0.0170592 0.0153607 0.150929 0.00125 231
1 0.31871 0.0371479 0.00151772 0.00405786 -0.0187942 -0.212895 0.00125 232
1 0.0829459 0.139007 0.00223557 0.00423828 0.00139224 -0.0520349 0.00125 233
1 0.0213138 0.151026 0.00203976 0.010198 0.00764913 -0.185428 0.00125 234
1 0.123714 0.135131 0.00158653 0.0120052 0.0376118 -0.140398 0.00125 235
1 0.0571031 0.221149 0.0013084 -0.0221468 -0.0231458 0.181103 0.00125 236
1 0.105184 0.30874 0.00140996 -0.0289387 -0.0163689 -0.0909095 0.00125 237
1 0.270127 0.288039 0.00203369 0.00773733 -0.0405823 -0.191741 0.00125 238
1 0.230079 0.221563 0.00184516 -0.0728834 0.0655316 -0.160244 0.00125 239
1 0.0141904 0.306397 0.00177309 -0.016672 0.00912061 -0.0757104 0.00125 240
1 0.228106 0.00802172 0.00133432 -0.0355449 0.0109177 -0.295464 0.00125 241
1 0.299575 0.224295 0.00152987 0.0023795 0.0329652 0.101738 0.00125 242
1 0.0984748 0.238703 0.00139714 -0.00733195 4.09709e-05 -0.310898 0.00125 243
1 0.0250511 0.101613 0.00140286 -0.000167985 0.0124011 0.170528 0.00125 244
1 0.0917878 0.0219352 0.00157978 0.00951206 0.012329 -0.103572 0.00125 245
1 0.209481 0.0162806 0.00124865 0.0206324 -0.0155592 -0.0307212 0.00125 246
1 0.290229 0.0950143 0.00223365 -0.0097727 -0.0321387 -0.150319 0.00125 247
1 0.177879 0.097101 0.00181951 -0.0356836 -0.0593329 -0.179057 0.00125 248
1 0.0891757 0.0877918 0.00202452 0.00913895 -0.032084 -0.0716819 0.00125 249
1 0.286005 0.242697 0.00245944 -0.0110125 -0.00795078 -0.0337881 0.00125 250
1 0.181534 0.131789 0.00157017 -0.0129142 0.0117129 -0.226119 0.00125 251
1 0.0468689 0.016784 0.00162501 0.0146099 0.0134566 0.212203 0.00125 252
1 0.153347 0.0743805 0.00127415 -0.00579764 0.0295244 0.190346 0.00125 253
1 0.101152 0.279081 0.0019081 0.0456558 -0.0320252 -0.078147 0.00125 254
1 0.0291728 0.184447 0.00129447 -0.00655749 0.00388079 0.232872 0.00125 255
1 0.148848 0.0543726 0.00123683 -0.0351773 -0.0035927 0.190184 0.00125 256
1 0.310315 0.238566 0.00159856 -0.015393 -0.02589 -0.122758 0.00125 257
1 0.225895 0.0319277 0.00162401 0.0741366 -0.0314597 -0.173462 0.00125 258
1 0.206209 0.188387 0.00194876 0.0204895 0.0200848 -0.238456 0.00125 259
1 0.120619 0.277352 0.0015048 0.0131391 0.0152363 0.169806 0.00125 260
1 0.267425 0.184321 0.00161464 0.000123563 0.00884051 -0.201021 0.00125 261
1 0.0132937 0.123683 0.00172119 -0.02904 -0.00866811 -0.0596512 0.00125 262
1 0.290543 0.201662 0.00128446 -0.00975739 -0.0294416 0.188598 0.00125 263
1 0.274586 0.0730563 0.00138682 0.073842 -0.071564 0.00938881 0.00125 264
1 0.239988 0.143952 0.00132805 -0.00546043 -0.0255023 0.19468 0.00125 265
1 0.103261 0.0161565 0.00232281 0.0228347 -0.0779559 0.0107997 0.00125 266
1 0.181542 0.138855 0.00146412 -0.000917112 0.0720013 -0.251363 0.00125 267
1 0.20524 0.0661815 0.00169085 -0.0562136 -0.0351422 -0.174977 0.00125 268
1 0.0568093 0.17418 0.00195722 0.0212668 0.00223087 -0.0767856 0.00125 269
1 0.199689 0.0580958 0.00165864 -0.00910268 0.0115217 0.092282 0.00125 270
1 0.279085 0.110636 0.002161 -0.0606432 -0.00156498 -0.154114 0.00125 271
1 0.0968844 0.200487 0.00124765 -0.0826169 -0.0525749 -0.157008 0.00125 272
1 0.248961 0.0267592 0.00204446 0.0161988 -0.0156606 -0.0256053 0.00125 273
1 0.234674 0.302826 0.00122723 0.0326386 0.0193009 -0.0835615 0.00125 274
1 0.0513481 0.219476 0.00153771 -0.000728571 -0.00361746 -0.173849 0.00125 275
1 0.0112471 0.0368688 0.00182974 0.0225772 0.0173893 -0.209307 0.00125 276
1 0.0210804 0.0255008 0.00124674 0.000627867 0.035752 0.196751 0.00125 277
1 0.00238074 0.290315 0.00122964 -0.0141125 0.0184074 -0.0196175 0.00125 278
1 0.145488 0.228244 0.00219516 0.108862 0.102927 -0.102838 0.00125 279
1 0.282938 0.0889362 0.00175583 -0.0112135 0.00548105 -0.223714 0.00125 280
1 0.0593907 0.0607604 0.00141917 -0.0252715 -0.0273718 -0.195913 0.00125 281
1 0.136395 0.230791 0.00233736 0.0221448 0.00650286 -0.114265 0.00125 282
1 0.142685 0.312049 0.00129208 0.0106525 -0.0107618 -0.0749645 0.00125 283
1 0.153514 0.0652265 0.00145596 -0.00512765 -0.00806543 0.219782 0.00125 284
1 0.278659 0.0108578 0.00177289 0.014921 0.018574 -0.0811379 0.00125 285
1 0.242736 0.0957889 0.00146827 -0.118668 0.00619004 0.138822 0.00125 286
1 0.230045 0.107651 0.0013904 -0.0147111 0.0116251 0.137053 0.00125 287
1 0.27814 0.0744203 0.00130825 -0.0133498 -0.0750094 0.023489 0.00125 288
1 0.217371 0.0134789 0.00137213 -0.00868973 0.00249786 -0.204804 0.00125 289
1 0.209871 0.303174 0.00141214 0.00367197 0.00384838 -0.246779 0.00125 290
1 0.0179333 0.0686563 0.00125102 -0.0553699 0.00141792 0.119316 0.00125 291
1 0.290905 0.0623943 0.00135794 0.0195167 0.0318675 -0.0957517 0.00125 292
1 0.257784 0.216949 0.00157448 0.0402323 -0.00272958 -0.199812 0.00125 293
1 0.0228429 0.114186 0.00160926 0.0505041 0.0447652 -0.239875 0.00125 294
1 0.191476 0.309802 0.00161773 -0.0280455 -0.0348635 -0.258554 0.00125 295
1 0.0181875 0.024727 0.00243913 -0.0106531 -0.0203817 -0.037373 0.00125 296
1 0.147812 0.187974 0.00219143 0.00135907 -0.000889992 -0.159601 0.00125 297
1 0.239932 0.273086 0.00127789 0.0172197 0.0188355 0.176065 0.00125 298
1 0.260431 0.155972 0.00170949 -0.0125959 -0.00979517 0.0694422 0.00125 299
1 0.107983 0.0210288 0.00201314 -0.0304308 0.012208 -0.192372 0.00125 300
1 0.201878 0.173239 0.00130535 0.000491906 0.00662819 -0.225293 0.00125 301
1 0.140517 0.0242989 0.00209161 0.0122113 0.0161711 -0.176274 0.00125 302
1 0.0511297 0.176656 0.00166125 -0.048175 -0.0230709 -0.0857217 0.00125 303
1 0.0377205 0.223821 0.00133193 -0.00670079 0.0357371 -0.0259992 0.00125 304
1 0.0532603 0.317601 0.00134619 0.060294 -0.0335557 -0.192559 0.00125 305
1 0.19079 0.203899 0.00166647 -0.0746455 0.0265678 -0.103758 0.00125 306
1 0.0118436 0.265829 0.00184811 0.00610602 -0.0418835 -0.0958084 0.00125 307
1 0.0950443 0.313349 0.00161748 -0.0387947 -0.0529511 0.106999 0.00125 308
1 0.215515 0.16631 0.00158497 -0.00442198 0.00545318 -0.18523 0.00125 309
1 0.22376 0.221206 0.00123298 0.029754 -0.0155994 0.103887 0.00125 310
1 0.17905 0.133123 0.00178837 -0.0184821 -0.00918139 -0.219766 0.00125 311
1 0.0595761 0.0417685 0.00176782 -0.0456635 0.0150267 -0.0937947 0.00125 312
1 0.097502 0.129521 0.00162318 -0.00443288 0.0386412 0.0608033 0.00125 313
1 0.258686 0.234054 0.00196824 -0.019872 0.0352618 -0.18272 0.00125 314
1 0.152366 0.08607 0.00200469 -0.0296412 -0.053195 -0.0830184 0.00125 315
1 0.112423 0.285358 0.00139941 0.00544898 -0.0108737 0.152984 0.00125 316
1 0.115883 0.137836 0.00139344 -0.0314582 0.0324403 -0.260042 0.00125 317
1 0.125022 0.154197 0.00138794 0.0178536 0.0173527 0.151864 0.00125 318
1 0.298293 0.166626 0.00188608 -0.0239689 0.035519 -0.120873 0.00125 319
1 0.308481 0.158309 0.00124772 0.0337691 -0.0128296 -0.23824 0.00125 320
1 0.0163197 0.13293 0.00247972 -0.00398806 -0.0112832 -0.0303088 0.00125 321
1 0.196696 0.027751 0.00139881 0.0220529 -0.00277248 0.153452 0.00125 322
1 0.298023 0.147021 0.00246192 0.00444994 0.0304073 -0.0512744 0.00125 323
1 0.0589686 0.31127 0.00165145 0.00821566 0.00705372 -0.202708 0.00125 324
1 0.259663 0.143319 0.00219334 -0.0537016 0.0401896 -0.0593007 0.00125 325
1 0.300597 0.169472 0.0022216 0.0185863 0.0113969 -0.175754 0.00125 326
1 0.226769 0.0894267 0.00240804 -0.000868465 -0.0456525 0.0140001 0.00125 327
1 0.237647 0.212993 0.00130115 0.0145072 0.0110772 -0.0839664 0.00125 328
1 0.217875 0.209323 0.0015063 -0.123412 0.0360261 0.0393382 0.00125 329
1 0.304278 0.0311761 0.00128498 -0.0256966 -0.0271541 -0.214099 0.00125 330
1 0.0520563 0.26536 0.001515 0.040356 -0.0244193 -0.270584 0.00125 331
1 0.240394 0.0346468 0.00208997 0.0309309 0.100687 -0.0172467 0.00125 332
1 0.250643 0.125692 0.00138962 -0.0136352 -0.0404922 -0.236177 0.00125 333
1 0.24645 0.094342 0.00217078 0.090592 -0.0502916 -0.167154 0.00125 334
1 0.192047 0.233914 0.0018997 0.0616432 0.0170393 -0.0394888 0.00125 335
1 0.0271056 0.0350047 0.00134573 -0.00538371 -0.00920349 -0.236825 0.00125 336
1 0.088921 0.318765 0.00207587 -0.0498625 -0.0280412 -0.139628 0.00125 337
1 0.22903 0.102761 0.00135915 0.0131315 0.00744565 -0.196987 0.00125 338
1 0.143115 0.111569 0.00167099 -0.00948285 0.0094558 0.108523 0.00125 339
1 0.153513 0.119237 0.00232798 0.068874 -0.101007 -0.02493 0.00125 340
1 0.0431994 0.140364 0.0024058 0.023039 -0.0529037 -0.0395753 0.00125 341
1 0.0800158 0.209444 0.00156829 -0.0078193 -0.0801762 -0.173048 0.00125 342
1 0.0862181 0.142287 0.00126749 -0.000102741 -0.0320791 0.060632 0.00125 343
1 0.250906 0.243748 0.00203843 0.090002 0.031669 -0.0605726 0.00125 344
1 0.152604 0.24938 0.00159378 0.024213 -0.031967 -0.168163 0.00125 345
1 0.164466 0.162891 0.0014738 0.0211252 0.0233999 0.138369 0.00125 346
1 0.252898 0.300268 0.00248619 -0.0669494 0.0200126 -0.0173366 0.00125 347
1 0.0414758 0.0657365 0.00174381 0.0300892 0.000964757 -0.0833964 0.00125 348
1 0.22784 0.307911 0.00127796 -0.0543181 -0.00403505 -0.250094 0.00125 349
1 0.0239208 0.178443 0.0014888 -0.00614457 0.013203 -0.256371 0.00125 350
1 0.201059 0.297363 0.00126463 0.0206161 0.0163631 -0.187953 0.00125 351
1 0.0301834 0.278052 0.00185161 -0.0503349 -0.0574353 -0.0151567 0.00125 352
1 0.274013 0.11886 0.0024201 -0.0203488 0.00502576 -0.0848574 0.00125 353
1 0.28687 0.17827 0.00241022 0.0404458 0.0709508 -0.0104948 0.00125 354
1 0.0407292 0.102198 0.00162762 0.0340675 -0.0235165 -0.223479 0.00125 355
1 0.00203388 0.237602 0.00132094 0.0272837 -0.0321111 0.212557 0.00125 356
1 0.290451 0.0271182 0.00195953 0.0146186 -0.0301974 -0.157385 0.00125 357
1 0.0361901 0.258738 0.00149972 0.0164233 -0.0109303 0.105253 0.00125 358
1 0.119613 0.285983 0.00133521 0.00358683 0.000477642 -0.213808 0.00125 359
1 0.0638879 0.261135 0.0013487 0.00866943 0.0293673 -0.291913 0.00125 360
1 0.0715247 0.260012 0.00129281 -0.0420381 0.0466708 0.0953376 0.00125 361
1 0.103682 0.0194383 0.00128068 0.0100926 0.00494121 -0.141411 0.00125 362
1 0.203077 0.272742 0.00224865 -0.00107508 -0.0526763 -0.0178639 0.00125 363
1 0.0654977 0.267057 0.00129416 0.0151921 -0.0217381 0.188877 0.00125 364
1 0.26382 0.0168753 0.00144264 -0.00446946 0.0367515 -0.184955 0.00125 365
1 0.0350432 0.120042 0.00247404 -0.0444724 0.0706949 0.0327904 0.00125 366
1 0.0265625 0.0259259 0.0013241 -0.0187625 0.0334534 0.216358 0.00125 367
1 0.274519 0.164835 0.00158256 0.012868 0.0107051 -0.220923 0.00125 368
1 0.147431 0.2612 0.00232947 -0.0354895 0.00764861 -0.0442048 0.00125 369
1 0.211935 0.106474 0.00146252 0.0103275 -0.0264764 0.14473 0.00125 370
1 0.121065 0.204443 0.00130767 0.00320716 -0.00955396 0.180866 0.00125 371
1 0.129353 0.0125742 0.00171097 -0.024062 0.0751703 0.110441 0.00125 372
1 0.256938 0.17635 0.00123785 0.014747 -0.00220122 -0.182006 0.00125 373
1 0.123809 0.186245 0.00148618 0.0142144 0.0170828 -0.0998092 0.00125 374
1 0.0631806 0.0843228 0.00247027 -0.000588126 0.0252592 -0.0899774 0.00125 375
1 0.279307 0.284356 0.00136675 -0.0319623 -0.0871937 0.0577622 0.00125 376
1 0.257045 0.241583 0.00249045 0.00838952 -0.00708214 -0.0333582 0.00125 377
1 0.164762 0.0997516 0.00142422 -0.049318 -0.0508369 0.234697 0.00125 378
1 0.203461 0.212914 0.00136235 -2.55533e-05 -0.00710151 0.257477 0.00125 379
1 0.220592 0.267997 0.00124451 -0.0509353 0.00368644 0.18571 0.00125 380
1 0.206836 0.0636689 0.00165856 0.0119055 0.0383067 0.12486 0.00125 381
1 0.276886 0.162832 0.00192443 -0.0025443 0.00323823 -0.084736 0.00125 382
1 0.120871 0.249409 0.00210381 0.00269735 0.00778733 -0.175205 0.00125 383
1 0.189623 0.251659 0.00140742 0.0134283 0.00871598 0.144591 0.00125 384
1 0.203621 0.246815 0.00148187 -0.013298 -0.0141682 0.161143 0.00125 385
1 0.211915 0.0969509 0.00132272 0.00690948 -0.00278067 0.178751 0.00125 386
1 0.0881404 0.251216 0.00157898 -0.0141488 -0.0175901 0.154964 0.00125 387
1 0.223476 0.212543 0.00166605 0.0274195 -0.0148257 0.0939961 0.00125 388
1 0.022922 0.157732 0.00143407 -0.019981 0.000770402 -0.294923 0.00125 389
1 0.177994 0.18194 0.00147299 0.0018426 -0.0125732 -0.245871 0.00125 390
1 0.148148 0.0933131 0.00135625 -0.0299513 -0.00717658 -0.23535 0.00125 391
1 0.1333 0.31054 0.00127063 0.000865475 -0.032713 -0.121586 0.00125 392
1 0.207062 0.191201 0.00232008 0.00610256 -0.00599329 -0.046669 0.00125 393
1 0.271886 0.225609 0.00137175 0.0317589 -0.030978 0.159747 0.00125 394
1 0.255735 0.120391 0.00180834 -0.024716 -0.0359275 0.122506 0.00125 395
1 0.287151 0.0861038 0.0013727 0.0194786 -0.0194743 -0.0870857 0.00125 396
1 0.209371 0.159847 0.00211901 -0.0256243 -0.14168 -0.0736304 0.00125 397
1 0.232757 0.223166 0.00123009 -0.00649396 -0.00655015 -0.0445325 0.00125 398
1 0.213496 0.23914 0.00235558 0.0096096 -0.0169664 -0.0341554 0.00125 399