ITEM: TIMESTEP
1000000
ITEM: NUMBER OF ATOMS
10000
ITEM: BOX BOUNDS pp pp ff
0.0000000000000000e+00 3.0833339999999998e-01
0.0000000000000000e+00 3.0833339999999998e-01
-1.2500000000000001e-02 1.2500000000000001e-02
ITEM: ATOMS type x y z vx vy vz radius id
1 0.0748896 0.104305 0.00138728 0.0342251 -0.0111703 0.153348 0.00125 1
1 0.163681 0.163653 0.00123778 -0.0114727 -0.0643067 0.153429 0.00125 2
1 0.18686 0.0805936 0.00226284 -0.0534617 0.0266218 0.0016475 0.00125 3
1 0.122562 0.0605799 0.00159431 0.00440155 0.00161251 -0.230714 0.00125 4
1 0.0332543 0.206461 0.00127415 0.0093231 0.0244731 0.266985 0.00125 5
1 0.154679 0.281365 0.00201006 0.00217296 0.0438836 -0.0342895 0.00125 6
1 0.219946 0.204539 0.00129325 -0.00254395 0.00228219 0.205384 0.00125 7
1 0.176504 0.00154879 0.00165242 0.00150685 -0.0106828 -0.0364278 0.00125 8
1 0.0155861 0.282255 0.00191616 -0.0132484 -0.10274 -0.0621676 0.00125 9
1 0.23035 0.296109 0.00188327 0.0355645 -0.0359343 -0.0887553 0.00125 10
1 0.214312 0.167132 0.00200514 -0.00316522 -0.0222118 -0.192492 0.00125 11
1 0.198114 0.000382744 0.00139703 -0.0524977 0.0143894 -0.209729 0.00125 12
1 0.271341 0.212324 0.00144831 0.045309 0.0334463 -0.23242 0.00125 13
1 0.301785 0.279523 0.00173412 0.0333969 0.0109705 -0.0911306 0.00125 14
1 0.0403456 0.265123 0.00157306 0.0228958 -0.0311451 -0.116215 0.00125 15
1 0.25392 0.0906429 0.00183722 -0.0185053 0.00671313 -0.056256 0.00125 16
1 0.0483781 0.0577566 0.00128377 0.0494013 0.0916451 0.114199 0.00125 17
1 0.0872558 0.167341 0.00123191 -0.0116187 0.0378488 0.0730568 0.00125 18
1 0.0442146 0.0190601 0.00235103 -0.0433908 -0.0266437 -0.108816 0.00125 19
1 0.0795358 0.0832016 0.00127761 0.00259029 -0.0314227 0.0263018 0.00125 20
1 0.100515 0.120349 0.00148992 -0.0621616 0.0105748 -0.193428 0.00125 21
1 0.033909 0.182715 0.00181979 0.00897142 0.0171865 -0.0770519 0.00125 22
1 0.0682125 0.169661 0.00248207 0.0291304 0.0145812 -0.0327773 0.00125 23
1 0.213313 0.226975 0.00162288 0.0337819 -0.0233244 -0.119778 0.00125 24
1 0.0337284 0.176461 0.00241764 -0.00613761 -0.0162412 -0.00168144 0.00125 25
1 0.302852 0.116321 0.00164093 0.00776468 -0.0440706 -0.179201 0.00125 26
1 0.172601 0.297662 0.0021581 -0.0482095 -0.0112738 -0.0791293 0.00125 27
1 0.244528 0.28024 0.00132781 0.00224819 -0.0218815 -0.302473 0.00125 28
1 0.0723107 0.0679791 0.00129123 0.00885841 -0.0182476 -0.313178 0.00125 29
1 0.0441759 0.119431 0.00125455 -0.0230842 0.0166721 0.267863 0.00125 30
1 0.0311883 0.0235236 0.00123673 0.00788223 0.0158471 0.189857 0.00125 31
1 0.236691 0.186328 0.00139825 -0.0211555 -0.00838207 -0.240973 0.00125 32
1 0.0741862 0.188938 0.00127153 0.00325475 0.00630474 0.193333 0.00125 33
1 0.0493939 0.129107 0.00148015 -0.0148429 -0.00839303 -0.293394 0.00125 34
1 0.0607684 0.111424 0.00161163 -0.00294713 0.000810848 0.116301 0.00125 35
1 0.268568 0.306601 0.00157029 0.0156396 -0.00696041 0.11068 0.00125 36
1 0.152521 0.00350476 0.00123583 0.0569042 -0.0170858 -0.179727 0.00125 37
1 0.030536 0.0939639 0.00237788 0.0347026 -0.0435139 0.00671452 0.00125 38
1 0.105336 0.0517177 0.0021917 0.0369092 -0.0463729 -0.101102 0.00125 39
1 0.138187 0.187505 0.00124902 0.0264015 0.03353 -0.20523 0.00125 40
1 0.214611 0.211429 0.00171101 0.0602457 0.0282392 -0.19561 0.00125 41
1 0.140626 0.150616 0.00128793 -0.0120906 0.0582086 -0.204394 0.00125 42
1 0.287381 0.205981 0.00220024 -0.0222981 0.0271698 -0.0519231 0.00125 43
1 0.120201 0.0489598 0.00142531 -0.0250839 0.00808646 0.152045 0.00125 44
1 0.131278 0.0472614 0.00226899 0.0342522 -0.0101212 -0.0682937 0.00125 45
1 0.280704 0.0373577 0.00135588 0.00144154 0.00912195 0.232123 0.00125 46
1 0.0842817 0.25275 0.00136172 -0.0159934 0.016133 -0.187537 0.00125 47
1 0.0480461 0.168987 0.00136707 0.00786449 0.00793725 -0.251194 0.00125 48
1 0.161838 0.240466 0.00140541 -0.0408884 -0.0108264 -0.2447 0.00125 49
1 0.187609 0.258599 0.00163515 0.0602118 0.00572623 -0.234561 0.00125 50
1 0.135229 0.0267655 0.00171125 0.0170805 0.0133635 -0.270289 0.00125 51
1 0.0573561 0.266989 0.00144362 0.0255926 -0.00171051 -0.188728 0.00125 52
1 0.164576 0.031188 0.00170213 0.0263647 -0.0279345 -0.222145 0.00125 53
1 0.262447 0.154945 0.00152636 -0.103507 -0.00243384 0.0558231 0.00125 54
1 0.23681 0.212576 0.00247141 -0.0205345 -0.01088 -0.023074 0.00125 55
1 0.00983925 0.270799 0.00129018 0.00175968 0.0307349 0.194164 0.00125 56
1 0.0312065 0.155786 0.0013905 -0.000930868 0.0343238 0.143413 0.00125 57
1 0.184168 0.273186 0.00132682 0.0149682 -0.011175 -0.236568 0.00125 58
1 0.0491035 0.0946733 0.00171824 0.00753985 -0.108445 -0.0494347 0.00125 59
1 0.131078 0.27271 0.0015894 0.046553 -0.0129472 0.201042 0.00125 60
1 0.129164 0.270366 0.00132217 0.00285749 -0.01483 -0.272479 0.00125 61
1 0.119467 0.208229 0.00133624 0.00626162 -0.0677901 0.0539915 0.00125 62
1 0.211684 0.0220741 0.00188384 -0.0138875 0.0463582 -0.0521994 0.00125 63
1 0.222004 0.266509 0.00130544 0.0342001 0.0181346 0.173132 0.00125 64
1 0.164522 0.0495038 0.0017904 0.0520786 -0.0178552 -0.0999291 0.00125 65
1 0.215324 0.172177 0.0012841 0.0215166 0.0292444 -0.217864 0.00125 66
1 0.112079 0.0143802 0.00129778 -0.0285252 0.0303354 0.211871 0.00125 67
1 0.110313 0.0323483 0.00167898 -0.00633144 -0.0125931 -0.270309 0.00125 68
1 0.195577 0.276822 0.00211261 0.00944684 -0.0476245 -0.0484957 0.00125 69
1 0.112963 0.261196 0.00196946 -0.00810816 0.0216577 -0.09209 0.00125 70
1 0.153029 0.260296 0.00132685 0.00648403 -0.0164045 0.171254 0.00125 71
1 0.0945477 0.123721 0.00242647 -0.0242812 -0.00156636 -0.0363889 0.00125 72
1 0.0993426 0.122846 0.00133366 0.0254329 -0.00325669 -0.217262 0.00125 73
1 0.0467706 0.190902 0.00143247 -0.0322983 0.0187067 -0.216417 0.00125 74
1 0.0951734 0.202703 0.00147308 -0.0156861 0.0150561 -0.234875 0.00125 75
1 0.302765 0.00338382 0.00154556 0.0362101 0.0432085 0.198811 0.00125 76
1 0.137981 0.0918446 0.00174913 -0.0110057 0.030788 -0.203781 0.00125 77
1 0.00224025 0.0808315 0.00168006 -0.00109324 -0.0371057 0.18987 0.00125 78
1 0.167294 0.247781 0.00202965 0.0496201 -0.0540481 -0.000923086 0.00125 79
1 0.0520192 0.202438 0.00203368 0.00656982 0.00887532 -0.222105 0.00125 80
1 0.0275724 0.0790302 0.00155378 -0.0216166 0.0198427 -0.234243 0.00125 81
1 0.148916 0.101794 0.00125359 0.0207556 -0.0063215 0.0612665 0.00125 82
1 0.00295207 0.303766 0.00149052 -0.0117956 0.0201596 -0.194773 0.00125 83
1 0.0897217 0.0154091 0.00126867 -0.00589531 -0.0185895 -0.222871 0.00125 84
1 0.140484 0.1888 0.00177332 -0.0803845 -0.021296 -0.105302 0.00125 85
1 0.0328671 0.169744 0.00215314 0.00343775 -0.0461563 -0.0521351 0.00125 86
1 0.243069 0.0888514 0.00125439 0.00791987 -0.00737587 0.194974 0.00125 87
1 0.220328 0.248434 0.00200197 -0.00426325 0.00457382 -0.0684205 0.00125 88
1 0.253277 0.230931 0.00251745 -0.0201297 0.0354281 -0.0213908 0.00125 89
1 0.041808 0.0442022 0.00152242 -0.0223478 0.0370943 -0.11485 0.00125 90
1 0.0602914 0.106633 0.00192281 0.0297576 -0.0112647 -0.0824232 0.00125 91
1 0.0771718 0.00406391 0.00122856 -0.00917479 -0.0239542 -0.0438078 0.00125 92
1 0.0272636 0.276642 0.00149053 -0.0124488 -0.00548834 -0.248141 0.00125 93
1 0.208709 0.264628 0.00245184 0.017236 0.048008 -0.00641564 0.00125 94
1 0.0700849 0.0709577 0.00131933 0.0125026 -0.0102055 0.210806 0.00125 95
1 0.125585 0.18587 0.00242946 -0.0210415 -0.0288917 -0.0971626 0.00125 96
1 0.0873442 0.00695359 0.00208811 -0.0573521 0.0101062 -0.02309 0.00125 97
1 0.120817 0.226762 0.00236037 0.00850229 0.0115298 -0.0432463 0.00125 98
1 0.274321 0.0428285 0.00133949 0.00433868 0.0742802 0.145078 0.00125 99
1 0.214883 0.108183 0.00128786 -0.00706985 0.0195988 -0.22165 0.00125 100
1 0.254642 0.213753 0.00198932 0.0284107 -0.0101732 -0.194178 0.00125 101
1 0.0436188 0.131981 0.00137092 -0.0243205 -0.0282195 0.0406042 0.00125 102
1 0.0226471 0.17037 0.00141859 -0.0119043 0.0535645 0.149319 0.00125 103
1 0.260575 0.0254726 0.00142883 0.0112512 0.00966679 0.222743 0.00125 104
1 0.300625 0.195056 0.00135005 -0.00813256 -0.00185603 -0.164562 0.00125 105
1 0.227655 0.0087989 0.00173241 0.020404 0.0213684 -0.0780459 0.00125 106
1 0.212316 0.171656 0.00148522 0.0532859 0.0536703 -0.195781 0.00125 107
1 0.250316 0.0104442 0.0015525 -0.0247535 0.023229 0.149114 0.00125 108
1 0.15689 0.0222316 0.0015993 -0.0691814 0.00393489 -0.0719073 0.00125 109
1 0.068962 0.247676 0.00146709 0.0511568 -0.00644586 0.203073 0.00125 110
1 0.10956 0.0872138 0.00188283 -0.0100789 0.0253008 -0.0376394 0.00125 111
1 0.0938555 0.242013 0.00178552 -0.0139245 -0.00892087 -0.214785 0.00125 112
1 0.107873 0.0901195 0.00158784 0.0273587 -0.00695431 -0.192317 0.00125 113
1 0.229427 0.221366 0.00206832 -0.01898 -0.00822709 -0.178566 0.00125 114
1 0.293718 0.0541779 0.00145043 -0.00830675 -0.0100566 0.146253 0.00125 115
1 0.129172 0.0816341 0.00152557 0.0103641 -0.0414773 0.00481274 0.00125 116
1 0.133249 0.19528 0.00182391 -0.0640322 -0.056623 -0.15708 0.00125 117
1 0.129014 0.0711496 0.00134161 0.00971087 -0.0161613 -0.297322 0.00125 118
1 0.164766 0.0890104 0.00140709 -0.00317841 0.020846 -0.226953 0.00125 119
1 0.214002 0.277346 0.00130768 0.0110369 0.021787 0.201867 0.00125 120
1 0.250662 0.0170026 0.00217556 0.00311563 0.0171155 -0.0163122 0.00125 121
1 0.0920826 0.282155 0.00136176 0.0037744 0.0109232 0.0296389 0.00125 122
1 0.0293002 0.0405919 0.00198595 0.00720892 -0.0042684 -0.122292 0.00125 123
1 0.262974 0.189685 0.00186576 0.0101284 0.00148131 -0.205537 0.00125 124
1 0.270211 0.0341808 0.00211034 -0.00668981 -0.0311205 -0.0228082 0.00125 125
1 0.0654364 0.232021 0.00237117 -0.0272534 -0.00206708 -0.0422438 0.00125 126
1 0.061247 0.0597173 0.00133062 0.0217297 -0.105023 -0.151781 0.00125 127
1 0.116874 0.133575 0.00138241 0.00918896 0.00409606 0.239389 0.00125 128
1 0.151127 0.291377 0.00126263 -0.0323562 -0.016009 0.0132133 0.00125 129
1 0.228562 0.11476 0.00154333 0.0129708 0.0357928 -0.184854 0.00125 130
1 0.0126984 0.250325 0.00151112 0.0155073 -0.0124058 0.0713699 0.00125 131
1 0.162481 0.121661 0.00193852 0.0602965 0.0611885 -0.1786 0.00125 132
1 0.150197 0.170788 0.00122926 -0.0284991 -0.0277366 0.000955444 0.00125 133
1 0.258996 0.2337 0.00151136 -0.0183375 -0.0222952 0.108297 0.00125 134
1 0.0170219 0.0803982 0.00208544 -0.0393985 -0.0227263 -0.159951 0.00125 135
1 0.0970007 0.219238 0.00126374 -0.0376583 -0.0129451 0.117849 0.00125 136
1 0.0255612 0.21781 0.00123918 -0.00705657 -0.0328319 0.0443851 0.00125 137
1 0.299273 0.17836 0.001286 -0.0201063 -0.0033337 -0.0177855 0.00125 138
1 0.00038711 0.270788 0.00212841 -0.0171797 0.0270293 -0.0210858 0.00125 139
1 0.286147 0.302811 0.00202101 0.00911372 0.0395173 -0.0460747 0.00125 140
1 0.0837415 0.261833 0.00150588 -0.0203934 -0.0237939 0.155854 0.00125 141
1 0.146872 0.26805 0.0015275 -0.0149077 0.0170315 -0.188032 0.00125 142
1 0.0490969 0.182898 0.00155966 0.00797709 0.0108017 0.0907527 0.00125 143
1 0.136027 0.241412 0.00141481 -0.0291946 -0.0131599 0.170011 0.00125 144
1 0.22228 0.0511163 0.00153172 0.0359763 0.050424 -0.184573 0.00125 145
1 0.0532225 0.21453 0.00156071 -0.0530798 -0.0914586 -0.0880665 0.00125 146
1 0.183841 0.252353 0.00145995 -0.0839461 -0.00649812 -0.123504 0.00125 147
1 0.00595744 0.307552 0.00133427 -0.0114761 0.0488362 -0.0649851 0.00125 148
1 0.0496357 0.255091 0.0015139 -0.0173692 -0.0272993 0.0655274 0.00125 149
1 0.203753 0.260185 0.00156437 0.0074015 0.0177096 0.109196 0.00125 150
1 0.170922 0.0115711 0.00198316 -0.105274 -0.0754559 -0.211354 0.00125 151
1 0.0519546 0.248481 0.001633 0.015765 -0.00150218 0.0965592 0.00125 152
1 0.264117 0.0887838 0.0015195 0.0530703 -0.0154416 -0.217795 0.00125 153
1 0.121001 0.269829 0.0022268 0.0272463 0.0209666 -0.0329286 0.00125 154
1 0.0659042 0.2583 0.00143572 0.0123644 -0.00423649 0.13891 0.00125 155
1 0.191127 0.2239 0.00139935 0.039367 0.017339 -0.227379 0.00125 156
1 0.00607247 0.169806 0.00243181 -0.0148466 0.0209462 -0.00455159 0.00125 157
1 0.28023 0.0693611 0.00165077 0.00268842 0.00147485 -0.23237 0.00125 158
1 0.272073 0.237607 0.00154511 -0.0127312 -0.00142357 -0.227055 0.00125 159
1 0.289467 0.084579 0.00150517 -0.0442587 0.119696 -0.195768 0.00125 160
1 0.0546809 0.102374 0.00142574 -0.013754 0.0124423 -0.247944 0.00125 161
1 0.242064 0.186257 0.00213259 -0.0212892 0.00215611 -0.0583537 0.00125 162
1 0.13602 0.185533 0.00131153 -0.0210312 -0.00830798 0.179651 0.00125 163
1 0.103698 0.0720668 0.00151496 0.0280677 -0.0189562 0.198246 0.00125 164
1 0.105355 0.274328 0.00131747 -0.014813 0.0223763 -0.229151 0.00125 165
1 0.202194 0.301461 0.00127989 -0.00614568 -0.004366 0.241618 0.00125 166
1 0.302329 0.174247 0.00134272 0.00974355 0.00236178 -0.201988 0.00125 167
1 0.0184953 0.109867 0.00129639 0.0122402 0.00704994 -0.208217 0.00125 168
1 0.290583 0.233218 0.00187765 -0.014799 -0.0388948 -0.0813731 0.00125 169
1 0.0041075 0.0288049 0.00230738 -0.0359374 -0.0829161 -0.131836 0.00125 170
1 0.167972 0.055887 0.00149592 -0.0204888 -0.0365868 0.219901 0.00125 171
1 0.0509826 0.0450167 0.00166489 0.0199419 0.0122789 -0.0367581 0.00125 172
1 0.127736 0.160381 0.00153514 -0.0598124 0.0293278 -0.0776744 0.00125 173
1 0.219149 0.018257 0.00192757 -0.0416609 0.0295228 -0.00728377 0.00125 174
1 0.0434885 0.114387 0.00138246 0.00378632 0.0433545 0.0428085 0.00125 175
1 0.223079 0.0837864 0.00196441 -0.00807424 0.016186 -0.0544902 0.00125 176
1 0.0721905 0.170892 0.00188578 -0.0291732 0.0205179 -0.0672767 0.00125 177
1 0.239572 0.190877 0.00130703 0.0823064 0.00635212 -0.240494 0.00125 178
1 0.0156127 0.174458 0.00209125 -0.0630988 -0.0220971 -0.128975 0.00125 179
1 0.0464171 0.234574 0.00237528 0.0710789 -0.0810488 -0.00278607 0.00125 180
1 0.205944 0.0603302 0.00134316 -0.0142327 0.0169499 -0.234455 0.00125 181
1 0.160224 0.0608439 0.00131777 -0.017495 -0.0336796 0.0152897 0.00125 182
1 0.154512 0.049326 0.00164998 -0.0382061 0.0420776 -0.174285 0.00125 183
1 0.189803 0.0211217 0.00125404 -0.0211626 0.0145462 -0.319031 0.00125 184
1 0.259206 0.195056 0.00126251 0.0240547 -0.0150754 0.0887474 0.00125 185
1 0.215309 0.296556 0.00196791 -0.00897616 0.0201373 -0.182084 0.00125 186
1 0.270489 0.162868 0.00146044 -0.0139258 0.013954 -0.273069 0.00125 187
1 0.100582 0.136712 0.00152845 0.000841602 -0.0265359 0.10276 0.00125 188
1 0.173818 0.28676 0.00165573 -0.00773414 -0.000584113 -0.223004 0.00125 189
1 0.224209 0.1515 0.00162499 0.0223893 0.003933 0.185635 0.00125 190
1 0.0883867 0.0040563 0.00163408 0.00626979 -0.0137836 -0.0969781 0.00125 191
1 0.0357658 0.30548 0.0012764 -0.00147407 0.0322473 0.170159 0.00125 192
1 0.101416 0.282101 0.00210775 -0.0124355 0.00287664 -0.167235 0.00125 193
1 0.148189 0.308282 0.00214424 -0.113498 0.00595365 -0.0175287 0.00125 194
1 0.0640845 0.217542 0.00181045 0.0411931 -0.0492034 -0.0241242 0.00125 195
1 0.0245545 0.0382337 0.00128256 0.0390712 0.0132755 0.257827 0.00125 196
1 0.22167 0.136817 0.00160119 -0.00874792 0.0196486 0.130703 0.00125 197
1 0.15921 0.220908 0.00132915 0.0179623 -0.0500318 0.168529 0.00125 198
1 0.204639 0.181788 0.00135247 0.0138936 0.00956359 0.167533 0.00125 199
1 0.0852159 0.301707 0.0012391 -0.037202 -0.00660811 -0.110485 0.00125 200
1 0.282183 0.0468439 0.00172136 -0.0522983 0.0915652 -0.17968 0.00125 201
1 0.285664 0.171203 0.00125478 -0.0395616 0.0123335 0.218783 0.00125 202
1 0.290881 0.204045 0.00131425 0.0261198 -0.00424623 0.236236 0.00125 203
1 0.294742 0.246126 0.00148335 -0.0313607 0.000580839 -0.230714 0.00125 204
1 0.0462924 0.180289 0.00168409 0.0426088 0.0144103 -0.10648 0.00125 205
1 0.149402 0.0987237 0.00164725 -0.0267733 0.0486056 -0.0729076 0.00125 206
1 0.21267 0.213988 0.00198719 -0.0176297 -0.0534231 -0.175357 0.00125 207
1 0.163848 0.166236 0.00155524 0.0174877 0.0128419 -0.14436 0.00125 208
1 0.0197317 0.0939018 0.0018143 0.0460442 -0.0307955 -0.181798 0.00125 209
1 0.126233 0.264705 0.00217223 0.0327244 0.0306692 0.0131769 0.00125 210
1 0.152409 0.139316 0.00130746 0.0276124 0.00277727 0.167729 0.00125 211
1 0.298274 0.0945446 0.00190961 0.0612267 -0.0323986 -0.0972171 0.00125 212
1 0.00529635 0.116404 0.0024815 0.00917458 0.00259192 -0.0368236 0.00125 213
1 0.256715 0.0147426 0.00245828 -0.0504992 -0.0282639 -0.0631466 0.00125 214
1 0.272241 0.0174988 0.0018261 0.0161258 0.0116099 -0.0573767 0.00125 215
1 0.227829 0.273194 0.00165023 0.0291973 0.0013056 0.0570774 0.00125 216
1 0.153261 0.301618 0.00147249 0.0598299 -0.0732715 0.158399 0.00125 217
1 0.0302971 0.175073 0.00153799 0.00968201 0.00984041 0.141758 0.00125 218
1 0.106853 0.289712 0.00207291 0.0438394 -0.018855 -0.177313 0.00125 219
1 0.0810121 0.0758013 0.00132974 -0.035021 -0.00225368 0.182559 0.00125 220
1 0.236563 0.251339 0.00148851 0.0153909 0.00491794 -0.210562 0.00125 221
1 0.117221 0.178368 0.00148977 0.0263365 -0.0603947 -0.199456 0.00125 222
1 0.0562203 0.191998 0.00180757 -0.0095815 0.00790504 -0.221631 0.00125 223
1 0.0568799 0.0179332 0.0012401 0.0195858 -0.00644028 -0.182451 0.00125 224
1 0.0811074 0.239292 0.00134736 0.0280153 -0.00511122 -0.192006 0.00125 225
1 0.232483 0.207418 0.00132033 -0.0114127 -0.0140506 0.24097 0.00125 226
1 0.300738 0.238442 0.00131407 0.0380432 -0.00319473 -0.274664 0.00125 227
1 0.307913 0.235073 0.00184697 0.0172443 -0.0719312 -0.140911 0.00125 228
1 0.0583159 0.144956 0.0014111 -0.0438946 -0.00960134 -0.189631 0.00125 229
1 0.132602 0.103421 0.00189917 -0.0737054 0.00569497 -0.0469943 0.00125 230
1 0.078035 0.139561 0.00155257 -0.00982446 -0.0631247 -0.22734 0.00125 231
1 0.262536 0.0553712 0.00158286 0.0469206 0.0428739 -0.17893 0.00125 232
1 0.167507 0.10186 0.00126856 -0.0418167 0.0377901 0.0234932 0.00125 233
1 0.107224 0.0498995 0.0015798 0.0401368 -0.0514709 -0.105431 0.00125 234
1 0.198633 0.284321 0.00132001 -0.0088384 -0.0588669 -0.133192 0.00125 235
1 0.0256135 0.0524504 0.00238959 -0.0221728 0.0383565 -0.0583674 0.00125 236
1 0.303948 0.198912 0.0016953 -0.0103263 0.046188 -0.186663 0.00125 237
1 0.243798 0.118422 0.00155259 0.0301196 0.0176789 -0.276315 0.00125 238
1 0.0685018 0.05759 0.00141419 0.0458621 0.0265612 -0.225042 0.00125 239
1 0.157235 0.288945 0.00123794 -0.0207826 0.0674762 -0.223951 0.00125 240
1 0.181538 0.284762 0.00139469 0.0341887 0.00272328 -0.0653721 0.00125 241
1 0.160535 0.28326 0.00146718 0.056289 -0.0312244 0.0152288 0.00125 242
1 0.232748 0.129398 0.00182445 -0.0454287 -0.0185694 -0.22429 0.00125 243
1 0.10296 0.192103 0.00130747 0.0161831 -0.00747468 -0.27681 0.00125 244
1 0.0737837 0.0574473 0.00146742 -0.0142864 0.0254666 0.211694 0.00125 245
1 0.102909 0.17841 0.00165316 0.0241414 0.0163376 -0.227504 0.00125 246
1 0.255818 0.174508 0.00205465 -0.00935267 0.031176 -0.0615305 0.00125 247
1 0.0796776 0.0397823 0.00149345 -0.000170615 -0.0108877 -0.208245 0.00125 248
1 0.216138 0.175029 0.00125074 -0.0210866 -0.0340232 0.0601678 0.00125 249
1 0.206852 0.175356 0.00141147 0.0467687 0.0316587 -0.251525 0.00125 250
1 0.224681 0.147872 0.00153142 0.00291423 0.0142186 -0.188092 0.00125 251
1 0.0313938 0.249902 0.00153474 0.0711062 0.0296841 -0.1709 0.00125 252
1 0.0670125 0.178932 0.00128384 0.00651433 0.0181056 -0.244021 0.00125 253
1 0.126997 0.00887358 0.00149772 -0.00953278 0.0145516 -0.25147 0.00125 254
1 0.139997 0.214563 0.0013734 -0.0296356 0.0393101 -0.23551 0.00125 255
1 0.134437 0.0320965 0.00157937 0.00304795 0.0106835 -0.085215 0.00125 256
1 0.0997251 0.0579462 0.00160072 0.0241166 0.0028252 0.0990137 0.00125 257
1 0.0251905 0.169523 0.0012301 0.0162875 0.00462142 -0.100271 0.00125 258
1 0.25627 0.259169 0.00127397 0.0306757 -0.00683642 -0.307631 0.00125 259
1 0.270927 0.188641 0.00126161 0.0488471 -0.0258207 0.138699 0.00125 260
1 0.109783 0.0293056 0.00130449 0.0350185 -0.0313933 0.0712404 0.00125 261
1 0.283828 0.248846 0.00152976 0.0103697 0.033967 -0.236014 0.00125 262
1 0.184053 0.156045 0.00171687 -0.0630161 0.017973 -0.205227 0.00125 263
1 0.296306 0.290314 0.00201771 -0.0226713 0.0101429 -0.0332443 0.00125 264
1 0.149051 0.105148 0.00152869 0.0124283 0.115461 0.0801995 0.00125 265
1 0.141987 0.297433 0.00238122 -0.00051504 0.0129251 -0.101006 0.00125 266
1 0.164313 0.206816 0.00175934 -0.00213064 -0.0833577 -0.164799 0.00125 267
1 0.0452514 0.23198 0.00141382 0.0211993 -0.0111238 0.157122 0.00125 268
1 0.167355 0.0117755 0.0016235 -0.0106591 -0.0251017 -0.179857 0.00125 269
1 0.08281 0.30328 0.00165765 0.0203674 -0.0358532 -0.153522 0.00125 270
1 0.218882 0.0236159 0.00138157 0.0177727 -0.0114457 0.157373 0.00125 271
1 0.199534 0.144364 0.00169646 0.0286056 0.0338716 -0.104863 0.00125 272
1 0.0842225 0.232586 0.00131212 -0.0163525 -0.0550865 -0.185787 0.00125 273
1 0.11948 0.0550592 0.00131964 0.0123026 0.0121318 0.0313079 0.00125 274
1 0.174424 0.0421316 0.00184666 0.0675734 -0.0753811 -0.0833913 0.00125 275
1 0.024225 0.287485 0.00142098 -0.0223194 -0.00222451 -0.197906 0.00125 276
1 0.0396275 0.270639 0.0012711 -0.020207 0.0059048 0.213272 0.00125 277
1 0.161776 0.234711 0.00144206 0.0324924 0.034879 -0.178366 0.00125 278
1 0.156128 0.232969 0.0019796 -0.0287049 0.0154413 -0.0962204 0.00125 279
1 0.211353 0.00115553 0.00164643 -0.0125908 0.0201309 0.136255 0.00125 280
1 0.0908719 0.239432 0.00165214 -0.0501236 0.0216794 -0.171085 0.00125 281
1 0.131372 0.058005 0.00142405 -0.00767775 0.0160642 0.17971 0.00125 282
1 0.0263294 0.245933 0.00146457 0.102492 0.0172907 -0.181032 0.00125 283
1 0.195473 0.258598 0.00130664 0.00899763 -0.0445939 -0.0849636 0.00125 284
1 0.128203 0.243498 0.00226316 0.0474685 -0.0199625 -0.0431224 0.00125 285
1 0.00419037 0.119078 0.00144584 0.0116701 0.00521607 -0.242735 0.00125 286
1 0.0184472 0.195847 0.00129735 0.00216094 0.0166592 0.187513 0.00125 287
1 0.160017 0.200386 0.00135716 0.0590134 0.0785951 -0.168534 0.00125 288
1 0.262579 0.0318899 0.00133094 -0.0126611 -0.0168655 0.231063 0.00125 289
1 0.0687059 0.187604 0.00242558 -0.0049666 0.00992833 -0.0425574 0.00125 290
1 0.201459 0.0877057 0.00143236 0.0237915 -0.0578232 0.17614 0.00125 291
1 0.0272298 0.14896 0.00164664 0.0186279 -0.00857981 -0.0887402 0.00125 292
1 0.17912 0.0109057 0.00133945 0.0555665 0.0132454 -0.200453 0.00125 293
1 0.265552 0.141605 0.00166801 -0.0597371 -0.0713524 -0.105487 0.00125 294
1 0.306044 0.287152 0.00201782 0.0203256 -0.0528245 -0.10463 0.00125 295
1 0.181009 0.251507 0.00134515 -0.0145733 -0.018597 0.162743 0.00125 296
1 0.169038 0.257724 0.00153191 0.0298568 0.0416473 -0.166693 0.00125 297
1 0.187997 0.23488 0.00134048 -0.0327842 -0.00377786 0.187159 0.00125 298
1 0.244297 0.272028 0.00133099 0.0634777 -0.0249649 -0.233782 0.00125 299
1 0.166119 0.291601 0.00144165 -0.0269833 -0.0284763 -0.20101 0.00125 300
1 0.205083 0.30025 0.0013898 -0.0223792 -0.0165414 0.240327 0.00125 301
1 0.145474 0.221936 0.00176287 -0.00561944 -0.0100487 -0.0829543 0.00125 302
1 0.0112299 0.254197 0.00127718 0.0032171 -0.035164 0.0236122 0.00125 303
1 0.104813 0.144475 0.00240512 0.0240338 -0.00754702 -0.0401678 0.00125 304
1 0.29695 0.11792 0.00138469 0.030677 -0.0380663 -0.0047248 0.00125 305
1 0.222917 0.12064 0.00150252 0.0194511 -0.0307458 0.170943 0.00125 306
1 0.271942 0.00923264 0.00145328 -0.0391549 0.0311641 0.160754 0.00125 307
1 0.0445463 0.212353 0.00140014 0.00173554 -0.0259077 0.148387 0.00125 308
1 0.2332 0.0525015 0.00154446 0.0730808 0.00066939 -0.182416 0.00125 309
1 0.243976 0.0282341 0.00233622 -0.0148319 -0.0159743 0.02442 0.00125 310
1 0.218355 0.2628 0.0015694 -0.0386047 0.0620235 0.033917 0.00125 311
1 0.193965 0.125061 0.00195209 0.059148 -0.0324035 -0.141845 0.00125 312
1 0.149479 0.252197 0.00151171 0.0219242 -0.0298455 0.0970597 0.00125 313
1 0.107348 0.157514 0.00165858 -0.00181454 0.00101946 0.150951 0.00125 314
1 0.259762 0.154138 0.00139453 -0.024661 0.00144301 0.189388 0.00125 315
1 0.167485 0.189047 0.00183272 0.0462896 0.0195303 -0.0564164 0.00125 316
1 0.091144 0.241988 0.00185604 0.0231689 -0.0184587 -0.133796 0.00125 317
1 0.269324 0.0571988 0.0018407 0.0727982 -0.0600571 -0.142603 0.00125 318
1 0.155309 0.0559663 0.00142253 0.0297424 0.0277999 0.161461 0.00125 319
1 0.06641 0.186327 0.00189832 0.0609866 0.00816115 -0.0630203 0.00125 320
1 0.156942 0.0533682 0.00147639 0.0116368 -0.0178376 0.196223 0.00125 321
1 0.264978 0.167847 0.00131645 -0.0198917 -0.018164 -0.242235 0.00125 322
1 0.286317 0.0759689 0.00141386 -0.0494579 0.105549 -0.244555 0.00125 323
1 0.303449 0.236724 0.00145742 0.0253846 -0.0511881 0.13963 0.00125 324
1 0.146714 0.125945 0.00164597 -0.0336676 -0.0212274 -0.115119 0.00125 325
1 0.276641 0.166348 0.00218562 0.00605709 -0.0450601 -0.10818 0.00125 326
1 0.287396 0.0107799 0.00251546 -0.0187867 -0.0102965 -0.026591 0.00125 327
1 0.204742 0.0917648 0.00169221 0.0298591 0.0682633 -0.0608663 0.00125 328
1 0.193965 0.148255 0.00133363 0.00607696 -0.00375642 0.19028 0.00125 329
1 0.120397 0.203035 0.00135018 -0.0177672 -0.031833 0.03009 0.00125 330
1 0.25898 0.295604 0.00125307 0.0177739 0.0622341 -0.19446 0.00125 331
1 0.116228 0.00691651 0.00179716 0.0414891 -0.00655698 -0.21794 0.00125 332
1 0.117305 0.147048 0.00147281 0.0197789 -0.0147946 0.133661 0.00125 333
1 0.278849 0.238609 0.00152796 0.0435714 0.0300307 0.126282 0.00125 334
1 0.24773 0.117215 0.00206468 0.0743159 -0.0241847 -0.0499606 0.00125 335
1 0.226019 0.270301 0.00140969 0.0439821 0.00772158 0.0115714 0.00125 336
1 0.223105 0.105877 0.00181097 -0.0702499 -0.0246 -0.185707 0.00125 337
1 0.116837 0.109722 0.00239664 -0.00799887 -0.00773033 -0.120182 0.00125 338
1 0.152896 0.279492 0.00170494 -0.0184784 0.0291502 -0.174026 0.00125 339
1 0.0483702 0.0881981 0.00138745 -0.0150065 0.00344211 -0.211099 0.00125 340
1 0.132581 0.0375393 0.00140322 0.0686117 -0.0191037 -0.256925 0.00125 341
1 0.276909 0.00468396 0.00129164 0.0215347 0.0175021 0.0464286 0.00125 342
1 0.0770206 0.0843794 0.00188726 -0.0103383 -0.00173695 -0.115761 0.00125 343
1 0.0350946 0.00195876 0.00148474 0.0148511 0.00494929 0.178749 0.00125 344
1 0.128677 0.0187914 0.00157296 0.0317402 -0.000111227 0.148672 0.00125 345
1 0.156377 0.0318791 0.00198906 -0.0836113 -0.0128864 -0.0299211 0.00125 346
1 0.150078 0.25955 0.00160331 -0.0144003 0.0209037 0.0892561 0.00125 347
1 0.119316 0.010817 0.00123081 -0.0104915 -0.00108749 -0.0958029 0.00125 348
1 0.252827 0.0594025 0.00191028 0.0124883 0.0139339 -0.200712 0.00125 349
1 0.0917933 0.198858 0.00214506 0.0336535 0.0432415 -0.0516303 0.00125 350
1 0.247583 0.297993 0.00196137 -0.0224764 0.0430816 -0.235998 0.00125 351
1 0.177599 0.182281 0.00163807 0.0178321 0.00662055 0.162652 0.00125 352
1 0.296197 0.205305 0.00144796 0.0224221 0.021066 0.165709 0.00125 353
1 0.0749925 0.274548 0.0016912 0.0753483 -0.0234222 -0.0779698 0.00125 354
1 0.219586 0.100091 0.00144547 -0.0158703 -0.000500112 -0.261793 0.00125 355
1 0.252937 0.121941 0.00166982 -0.0139423 -0.0182644 -0.243934 0.00125 356
1 0.111985 0.205407 0.0012319 0.00967602 0.00573681 0.207904 0.00125 357
1 0.0556813 0.22608 0.00205158 0.00470865 -0.0188293 -0.188515 0.00125 358
1 0.156669 0.242845 0.00209585 -0.0422079 -0.0767961 -0.134581 0.00125 359
1 0.27662 0.28224 0.00133846 -0.000468238 -0.0408922 -0.0199809 0.00125 360
1 0.0599127 0.251429 0.0014688 0.000484524 -0.026109 0.156678 0.00125 361
1 0.282668 0.116255 0.00152982 -0.0423082 0.0292449 0.0993378 0.00125 362
1 0.101113 0.205387 0.00125288 0.0324597 0.0253479 0.20954 0.00125 363
1 0.257549 0.104142 0.00132729 -0.0487659 0.0488611 0.0631974 0.00125 364
1 0.110346 0.244299 0.00141568 0.05156 -0.00622703 0.215984 0.00125 365
1 0.0455349 0.227394 0.00123488 -0.022649 0.0179689 -0.192218 0.00125 366
1 0.188943 0.299987 0.00196284 0.0472382 0.00563153 -0.18539 0.00125 367
1 0.141672 0.12859 0.00148281 -0.045982 0.0175943 0.182055 0.00125 368
1 0.00851093 0.0230552 0.00207683 0.0118674 -0.0128017 -0.1743 0.00125 369
1 0.266892 0.139427 0.00134169 0.0128223 0.00344762 0.191468 0.00125 370
1 0.202755 0.254181 0.00249995 -0.00352453 -0.00262269 -0.0497854 0.00125 371
1 0.282599 0.0393756 0.00164872 -0.00442256 -0.0303096 -0.232966 0.00125 372
1 0.209963 0.252762 0.00131395 -0.0297118 0.0212569 -0.140755 0.00125 373
1 0.175341 0.142959 0.00126053 -0.0254026 -0.0292237 -0.247923 0.00125 374
1 0.0550627 0.281258 0.00142127 0.0313455 -0.043465 0.158593 0.00125 375
1 0.247647 0.149877 0.00231702 0.066449 0.00185797 0.00447758 0.00125 376
1 0.0893078 0.17513 0.00152449 -0.025691 -0.00934644 -0.041981 0.00125 377
1 0.230846 0.271849 0.0016177 0.00638694 0.0365639 -0.177434 0.00125 378
1 0.0729546 0.264863 0.00175202 -0.0371108 -0.0120934 -0.242484 0.00125 379
1 0.0549255 0.258417 0.00171571 -0.0440398 0.0142541 -0.230754 0.00125 380
1 0.0116126 0.0934651 0.00144625 -0.0462717 -0.0127216 -0.226128 0.00125 381
1 0.298056 0.228463 0.0022536 -0.00502981 0.065265 -0.0832666 0.00125 382
1 0.141286 0.0215411 0.00133167 0.0850991 0.0108849 0.000277411 0.00125 383
1 0.292727 0.255962 0.00161835 0.00456576 0.012737 -0.227141 0.00125 384
1 0.0599937 0.171516 0.00130286 0.00895581 0.00238336 0.00822231 0.00125 385
1 0.10703 0.127772 0.00188802 0.0022845 -0.0250181 -0.237232 0.00125 386
1 0.257464 0.186758 0.00231198 -0.0083168 0.0333824 -0.0188088 0.00125 387
1 0.232648 0.246135 0.00146265 0.0164472 0.015936 0.14928 0.00125 388
1 0.226265 0.306455 0.00162868 -0.051629 -0.00903665 -0.187307 0.00125 389
1 0.164137 0.186977 0.00124408 -0.0170158 0.0180785 -0.207066 0.00125 390
1 0.0449695 0.0919687 0.00163193 -0.0236819 -0.0168513 -0.197351 0.00125 391
1 0.0307194 0.281237 0.00194655 0.0793784 0.00547438 -0.0693089 0.00125 392
1 0.0645839 0.212468 0.00153347 0.0341406 0.0206223 -0.241095 0.00125 393
1 0.124747 0.255982 0.00167469 0.0183881 0.0423174 -0.19006 0.00125 394
1 0.242343 0.165419 0.00188972 0.00806574 0.052153 -0.186168 0.00125 395
1 0.29733 0.0913709 0.00198378 -0.0389658 -0.0253009 -0.186897 0.00125 396
1 0.207098 0.180544 0.00237788 -0.00279429 -0.0310488 -0.0410946 0.00125 397
1 0.292935 0.0840136 0.00170799 -0.0311033 -0.0153014 -0.105025 0.00125 398
1 0.307695 0.223728 0.001395 0.0182288 -0.00621955 0.255302 0.00125 399
1 0.193395 0.0732077 0.00204287 -0.0427989 -0.000128666 -0.0683628 0.00125 400