ITEM: TIMESTEP
1000000
ITEM: NUMBER OF ATOMS
10000
ITEM: BOX BOUNDS pp pp ff
0.0000000000000000e+00 3.0709555750000000e-01
0.0000000000000000e+00 3.0709555750000000e-01
-1.2500000000000001e-02 1.2500000000000001e-02
ITEM: ATOMS type x y z vx vy vz radius id
1 0.118968 0.0162622 0.00241012 0.0323449 -0.0400739 0.0224588 0.00125 1
1 0.23404 0.0699479 0.00123914 -0.0121218 0.00033295 -0.204837 0.00125 2
1 0.250337 0.200171 0.00206769 -0.021256 0.0215572 -0.179068 0.00125 3
1 0.0263042 0.141776 0.00151853 -0.0235807 -0.0400432 -0.197036 0.00125 4
1 0.220348 0.140759 0.00149789 0.00819461 0.0597194 -0.144167 0.00125 5
1 0.000990129 0.18292 0.00175638 -0.00537451 -0.00906911 -0.189396 0.00125 6
1 0.146626 0.0343939 0.00161823 0.00621635 -0.0256993 -0.229408 0.00125 7
1 0.112074 0.0438683 0.00129939 0.00541402 -0.0184947 -0.253491 0.00125 8
1 0.255069 0.0100436 0.00189447 -0.0945138 -0.0559541 -0.139235 0.00125 9
1 0.155291 0.113881 0.00160176 0.0671713 -0.0565983 -0.234253 0.00125 10
1 0.278373 0.00989435 0.00177524 -0.0217955 -0.0157727 0.142734 0.00125 11
1 0.26813 0.285714 0.00143368 0.0663192 0.0298175 0.12883 0.00125 12
1 0.224407 0.188205 0.00153641 0.0336566 -0.0158013 -0.258542 0.00125 13
1 0.0878677 0.13433 0.00162822 -0.0143397 0.00283716 -0.17456 0.00125 14
1 0.0183298 0.1351 0.00146748 -0.0352131 -0.0357485 -0.14086 0.00125 15
1 0.305668 0.304902 0.0023051 0.0296073 0.0539997 -0.0470494 0.00125 16
1 0.237939 0.0130117 0.00134462 0.0140708 -0.00810295 -0.156117 0.00125 17
1 0.210873 0.26546 0.00145097 -0.014158 -0.0238811 -0.226555 0.00125 18
1 0.295896 0.0284113 0.00143718 -0.00427373 -0.00994514 0.235951 0.00125 19
1 0.0889421 0.21735 0.00192824 -0.0648847 0.0654027 -0.204157 0.00125 20
1 0.0389153 0.255735 0.00249814 0.00336539 0.0441063 -0.0422795 0.00125 21
1 0.0782966 0.0274628 0.00180227 0.0385218 -0.0156471 -0.22085 0.00125 22
1 0.204232 0.279939 0.00141074 0.0335856 -0.0139328 0.227547 0.00125 23
1 0.237492 0.264915 0.00248821 0.00066953 -0.0134833 -0.0591084 0.00125 24
1 0.216353 0.219815 0.00190755 -0.024466 -0.0279241 -0.0303256 0.00125 25
1 0.195264 0.00344411 0.00139941 0.0199422 0.0119278 -0.228884 0.00125 26
1 0.0936262 0.170807 0.00184809 0.0140416 0.0343385 -0.125025 0.00125 27
1 0.229905 0.162697 0.00127813 -0.045914 -0.0444323 -0.00660535 0.00125 28
1 0.00508909 0.304549 0.00183915 -0.0651412 -0.0132691 -0.0884757 0.00125 29
1 0.117864 0.0222355 0.00137323 0.0242375 -0.0224623 0.223818 0.00125 30
1 0.135598 0.167709 0.0013041 -0.0457158 0.00900353 0.192695 0.00125 31
1 0.0169562 0.140871 0.00165572 0.0330583 -0.0226336 0.172249 0.00125 32
1 0.0369393 0.235594 0.0012514 -0.0738031 -0.0324013 -0.117395 0.00125 33
1 0.302109 0.288136 0.00141634 -0.010781 0.0679264 0.173708 0.00125 34
1 0.213294 0.257925 0.00127018 0.00874437 -0.00307235 -0.218408 0.00125 35
1 0.24043 0.0709298 0.00172586 -0.00255202 -0.0239211 -0.236649 0.00125 36
1 0.281624 0.214476 0.00134252 0.0280715 0.0336119 -0.211884 0.00125 37
1 0.183914 0.0973598 0.00123501 -0.00488512 -0.0380189 -0.253474 0.00125 38
1 0.173778 0.251228 0.00135138 -0.0161643 -0.0201821 -0.232123 0.00125 39
1 0.0551801 0.24796 0.0022406 -0.00715089 -0.0169473 -0.064872 0.00125 40
1 0.110223 0.264138 0.00141363 -0.0416413 0.0393056 -0.168427 0.00125 41
1 0.227186 0.071816 0.00123538 0.0343678 -0.0361704 0.0438008 0.00125 42
1 0.24818 0.0336673 0.00187039 0.0312938 -0.0488156 -0.0548962 0.00125 43
1 0.052268 0.177563 0.00189312 0.0105483 0.013627 -0.20831 0.00125 44
1 0.169415 0.134637 0.00132061 0.0319017 0.0207151 0.10601 0.00125 45
1 0.150155 0.258367 0.00202966 0.00137492 0.0200468 -0.180826 0.00125 46
1 0.138337 0.283207 0.00237364 -0.031579 0.0432439 -0.0357253 0.00125 47
1 0.243374 0.263658 0.00123268 -0.0424061 0.0276885 -0.110684 0.00125 48
1 0.257995 0.24081 0.00169552 0.0110959 0.0262101 0.132339 0.00125 49
1 0.156563 0.0597644 0.00128119 -0.00987803 -0.00837641 -0.236817 0.00125 50
1 0.0738066 0.0711633 0.0022558 0.03763 0.01376 -0.140269 0.00125 51
1 0.147984 0.171299 0.00126384 -0.0101112 0.0197008 -0.307397 0.00125 52
1 0.220695 0.171428 0.00131673 -0.0455415 -0.0129809 0.185986 0.00125 53
1 0.269032 0.0379899 0.00132893 0.00616318 0.0119241 -0.247118 0.00125 54
1 0.0150998 0.306683 0.00165355 -0.0496715 -0.0246041 -0.210592 0.00125 55
1 0.00980932 0.132762 0.00189623 0.0395009 -0.0658751 -0.200429 0.00125 56
1 0.0159905 0.0268454 0.00172753 0.012383 -0.0177462 -0.165512 0.00125 57
1 0.206013 0.0859004 0.001249 -0.0731159 -0.0365026 -0.247413 0.00125 58
1 0.27639 0.254533 0.00232093 -0.00493248 -0.0091903 0.0249674 0.00125 59
1 0.130797 0.188745 0.00136171 -0.000291689 -0.00261853 -0.214163 0.00125 60
1 0.14121 0.250515 0.00137016 -0.00887514 -0.00490115 -0.192041 0.00125 61
1 0.120455 0.263685 0.00141114 -0.0492152 -0.0119799 -0.276685 0.00125 62
1 0.00136776 0.0793764 0.0016276 -0.0612711 0.0106821 -0.113952 0.00125 63
1 0.149235 0.21274 0.00146581 -0.00621745 -0.0655173 -0.194131 0.00125 64
1 0.109541 0.20716 0.00167475 0.0116006 -0.02614 0.198307 0.00125 65
1 0.0140798 0.221829 0.00158997 0.0464054 0.00601209 0.01875 0.00125 66
1 0.203053 0.134506 0.00222791 0.0123643 0.043611 0.00865916 0.00125 67
1 0.0797176 0.0730871 0.00138092 -0.0471101 0.0153926 -0.0247575 0.00125 68
1 0.0265842 0.300514 0.0014041 -0.0251357 -0.00600396 -0.298034 0.00125 69
1 0.201216 0.222271 0.00238915 0.0107196 0.0227052 -0.00755601 0.00125 70
1 0.264398 0.106259 0.00149524 0.0342078 -0.0575328 -0.238945 0.00125 71
1 0.24246 0.247101 0.00132862 -0.0157664 0.0123549 -0.21322 0.00125 72
1 0.162358 0.136386 0.00202892 0.00147734 0.0235024 -0.178081 0.00125 73
1 0.212805 0.0876738 0.00158177 0.0191125 -0.0062276 -0.185277 0.00125 74
1 0.283176 0.269978 0.00127769 0.0164868 0.0365088 -0.208446 0.00125 75
1 0.095275 0.00694979 0.00188971 -0.00642921 -0.00568396 -0.0480577 0.00125 76
1 0.223847 0.248317 0.001844 0.00635836 -0.0411522 -0.0863597 0.00125 77
1 0.249611 0.0700219 0.00247439 -0.0430998 0.0508547 -0.0262392 0.00125 78
1 0.0482893 0.184562 0.00137715 -0.0132092 -0.0392954 0.0700463 0.00125 79
1 0.16347 0.22855 0.0015841 -0.0437827 0.0095951 0.138848 0.00125 80
1 0.132045 0.275441 0.00207956 -0.0133075 -0.0203347 -0.0628315 0.00125 81
1 0.21333 0.111999 0.0014139 -0.0220154 0.00799836 0.151965 0.00125 82
1 0.0528573 0.246081 0.00164588 -0.0649856 0.00492469 -0.0802922 0.00125 83
1 0.0417641 0.13778 0.00155738 0.00462768 -0.00646017 -0.0794112 0.00125 84
1 0.173567 0.0487714 0.00155113 0.0129504 0.0243775 0.124451 0.00125 85
1 0.211834 0.10843 0.00124472 0.000767379 -0.00338505 -0.229473 0.00125 86
1 0.133676 0.143154 0.00171513 -0.0722975 -0.0214755 -0.169631 0.00125 87
1 0.00548644 0.139235 0.00126524 -0.00780789 0.0124471 0.215376 0.00125 88
1 0.190497 0.0274638 0.00171333 0.00690738 -0.0881121 0.165082 0.00125 89
1 0.235237 0.114768 0.00165443 3.78549e-05 -0.00210262 0.0893153 0.00125 90
1 0.177578 0.230811 0.00135579 0.01911 -0.0209344 0.1701 0.00125 91
1 0.185057 0.188437 0.00145324 0.0131543 0.0151715 -0.21994 0.00125 92
1 0.106916 0.30417 0.00139315 -0.0111443 -0.00791821 0.064136 0.00125 93
1 0.257438 0.295003 0.00125055 -0.0608802 -0.0966217 0.19723 0.00125 94
1 0.139129 0.210485 0.00136923 -0.044468 0.0353516 0.146427 0.00125 95
1 0.232126 0.169974 0.00166194 0.0097777 -0.0170862 -0.222706 0.00125 96
1 0.0893082 0.169534 0.00147604 -0.0284939 0.0467491 -0.220795 0.00125 97
1 0.0923021 0.116797 0.00125351 -0.0196525 -0.0248389 -0.234458 0.00125 98
1 0.204774 0.201237 0.00130625 -0.0108834 -0.0815633 0.0950307 0.00125 99
1 0.262173 0.234937 0.00190781 0.00915611 0.0321154 -0.0915793 0.00125 100
1 0.113031 0.0256984 0.00137441 0.00124682 0.03614 -0.229537 0.00125 101
1 0.180936 0.247033 0.00213483 0.0146928 -0.0824632 -0.160462 0.00125 102
1 0.227817 0.110538 0.00232204 -0.00299834 0.0412212 -0.0572809 0.00125 103
1 0.244997 0.261044 0.0014495 -0.026142 -0.0650925 -0.211729 0.00125 104
1 0.201247 0.306052 0.00162307 0.0658 0.0933561 0.0443818 0.00125 105
1 0.214903 0.122847 0.001247 0.00200068 0.0083061 -0.125159 0.00125 106
1 0.075353 0.0806912 0.00241404 -0.0299754 0.0291192 -0.0398327 0.00125 107
1 0.000188686 0.258418 0.00202438 0.052215 0.0112381 -0.0979972 0.00125 108
1 0.0244802 0.0378455 0.00141545 -0.0050773 -0.014842 -0.22742 0.00125 109
1 0.27115 0.20665 0.00174988 -0.0750414 -0.0402239 -0.193871 0.00125 110
1 0.257273 0.208091 0.00159853 -0.0230181 0.00237789 -0.124461 0.00125 111
1 0.289102 0.182727 0.00219377 -0.00626076 0.0678638 -0.0719263 0.00125 112
1 0.139589 0.190873 0.00150906 -0.00344506 0.0227802 -0.246782 0.00125 113
1 0.146532 0.118736 0.00172793 0.00725923 -0.042625 -0.0808188 0.00125 114
1 0.195761 0.253103 0.00135354 -0.018177 0.0100672 -0.262136 0.00125 115
1 0.08604 0.103081 0.00151444 -0.0566384 0.0226726 -0.258085 0.00125 116
1 0.209405 0.139493 0.00126134 -0.0173767 -0.0134711 0.194327 0.00125 117
1 0.0556772 0.212211 0.0014486 0.0106875 -0.0107081 0.144684 0.00125 118
1 0.0634943 0.0144126 0.00233537 0.0386599 -0.0280538 -0.0405078 0.00125 119
1 0.0510863 0.150807 0.0016337 0.0426387 -0.0138965 -0.225086 0.00125 120
1 0.296792 0.232055 0.00154186 0.0686173 -0.00995175 0.0472533 0.00125 121
1 0.0219923 0.271803 0.00164678 0.0254681 0.0286637 0.18736 0.00125 122
1 0.0184262 0.29197 0.00248465 0.0247811 -0.0132485 -0.0264803 0.00125 123
1 0.299972 0.0332318 0.00126682 0.0148055 0.026548 -0.119094 0.00125 124
1 0.25212 0.298817 0.00168095 -0.023659 0.0359614 0.0758928 0.00125 125
1 0.217084 0.222228 0.00187219 -0.0345283 0.0216628 -0.113045 0.00125 126
1 0.141857 0.232881 0.00140139 -0.00667136 -0.00588884 -0.230477 0.00125 127
1 0.181833 0.0522999 0.00182112 0.0381303 -0.00316014 -0.128054 0.00125 128
1 0.00188088 0.206911 0.0013226 -0.0443206 -0.0232306 0.183215 0.00125 129
1 0.114478 0.259048 0.00171339 -0.0218233 0.0673633 0.142827 0.00125 130
1 0.162716 0.160983 0.00215574 0.0127029 0.0125684 -0.0522234 0.00125 131
1 0.109001 0.17814 0.00159249 0.101164 -0.0328102 -0.198937 0.00125 132
1 0.230682 0.110475 0.00239989 0.0498941 -0.0769814 -0.0970932 0.00125 133
1 0.13881 0.0780783 0.00163566 -0.0534806 -0.012939 -0.169979 0.00125 134
1 0.257452 0.0330899 0.00187892 0.0105548 0.00474944 -0.210242 0.00125 135
1 0.0833673 0.146575 0.00240979 -0.0110127 -0.0187543 -0.0426328 0.00125 136
1 0.0483845 0.242017 0.00144478 0.0218363 -0.00560175 -0.230017 0.00125 137
1 0.195537 0.016584 0.00130495 -0.034713 0.000377359 -0.29594 0.00125 138
1 0.28958 0.136685 0.00131121 -0.00442435 0.00126967 0.184053 0.00125 139
1 0.0878247 0.292335 0.00142018 0.0293704 -0.0532641 -0.253071 0.00125 140
1 0.289446 0.306429 0.00130138 0.0485862 0.062023 0.0506662 0.00125 141
1 0.28454 0.0966325 0.00138283 -0.0474643 -0.00743911 0.205548 0.00125 142
1 0.0435492 0.045999 0.00150436 -0.00984718 -0.0998563 -0.0205772 0.00125 143
1 0.204068 0.221376 0.00195102 -0.0136146 -0.000554671 -0.065072 0.00125 144
1 0.265797 0.291797 0.00167775 0.000195588 -0.00104971 -0.225569 0.00125 145
1 0.118308 0.294173 0.00161737 0.00952586 0.00467549 -0.232019 0.00125 146
1 0.166215 0.152645 0.00146732 0.00130409 -0.0169231 0.132642 0.00125 147
1 0.284078 0.161807 0.00124657 -0.0450649 0.0231 -0.115605 0.00125 148
1 0.180321 0.142533 0.00154322 -0.0319797 0.0449507 0.081511 0.00125 149
1 0.0091971 0.197768 0.00165464 -0.00361305 -0.115913 -0.222446 0.00125 150
1 0.0700371 0.187589 0.00203825 -0.00996265 0.00556621 -0.0484838 0.00125 151
1 0.118024 0.209154 0.0021363 0.0318545 -0.0632671 0.0287599 0.00125 152
1 0.279968 0.0363423 0.00184745 0.0918528 -0.0630795 -0.165661 0.00125 153
1 0.0266518 0.209468 0.00146446 -0.00604228 -0.044804 0.196229 0.00125 154
1 0.266527 0.138351 0.00137408 -0.00913563 -0.0200344 -0.22878 0.00125 155
1 0.062479 0.211674 0.00124443 -0.0131022 -0.0359205 -0.188759 0.00125 156
1 0.000919567 0.0290158 0.00161291 0.0561502 0.0196434 0.0953502 0.00125 157
1 0.0443943 0.101514 0.00126707 -0.0296561 -0.0730508 -0.222254 0.00125 158
1 0.0427973 0.0614542 0.00131539 -0.0272841 0.0188317 -0.0229923 0.00125 159
1 0.228394 0.0270811 0.00238542 0.000745005 0.0218924 -0.0307926 0.00125 160
1 0.18081 0.196415 0.00130624 -0.011791 0.0104894 -0.0084619 0.00125 161
1 0.110276 0.0298407 0.00134076 -0.00485295 0.00212932 0.168224 0.00125 162
1 0.258539 0.244447 0.00146293 0.0206234 0.0031056 0.193955 0.00125 163
1 0.00509396 0.0661318 0.00123047 -0.0147309 -0.0159909 -0.0140191 0.00125 164
1 0.128378 0.194036 0.00160286 0.00541259 0.0405984 -0.20662 0.00125 165
1 0.0268601 0.26913 0.00122997 -0.00366058 -0.0258677 0.0993753 0.00125 166
1 0.143885 0.213806 0.00127106 0.0487417 -0.0104942 0.0617569 0.00125 167
1 0.236295 0.198923 0.00150601 0.0123651 -0.118796 0.0105975 0.00125 168
1 0.104145 0.218901 0.00124473 -0.0353688 -0.0252924 0.248626 0.00125 169
1 0.116678 0.256525 0.00205593 0.0160132 0.0197838 -0.181741 0.00125 170
1 0.118079 0.029026 0.00130463 -0.0218134 -0.0168815 0.0235207 0.00125 171
1 0.129255 0.235347 0.0014468 -0.00709719 -0.0282019 -0.295287 0.00125 172
1 0.198931 0.159753 0.00136584 0.0124468 -0.015745 0.170642 0.00125 173
1 0.189677 0.0210543 0.00159878 -0.0227086 0.0227247 -0.282482 0.00125 174
1 0.277058 0.224599 0.00144832 -0.0438014 0.117687 0.0109721 0.00125 175
1 0.258253 0.183091 0.00182569 0.0353865 0.0372281 -0.109865 0.00125 176
1 0.0587634 0.234697 0.00130942 0.00539879 0.024014 0.214468 0.00125 177
1 0.112065 0.151696 0.00123163 0.0496258 -0.0426977 -0.0843183 0.00125 178
1 0.110002 0.153604 0.00248786 0.0122772 0.0916483 -0.0230001 0.00125 179
1 0.160239 0.255394 0.00151781 0.0272679 -0.000583761 0.111872 0.00125 180
1 0.116034 0.232573 0.00139264 -0.00229416 -0.0584025 -0.107573 0.00125 181
1 0.00602249 0.0977555 0.00133868 -0.0207447 0.0239421 0.264668 0.00125 182
1 0.105622 0.0251526 0.00229157 -0.0316285 0.00310461 -0.157652 0.00125 183
1 0.286545 0.0331833 0.00136479 0.0447604 -0.0181837 0.249941 0.00125 184
1 0.249212 0.16965 0.0013788 0.011506 0.0586514 0.212925 0.00125 185
1 0.134343 0.102606 0.00238939 0.0406097 0.055098 -0.118658 0.00125 186
1 0.15864 0.0339846 0.00136871 -0.0392219 -0.0267837 0.17275 0.00125 187
1 0.0970174 0.170673 0.00132725 0.00409979 0.015794 0.167075 0.00125 188
1 0.0966271 0.0749007 0.0013711 0.0182757 0.0106453 -0.0934485 0.00125 189
1 0.306032 0.153605 0.00211615 0.00271336 0.00223581 -0.0781384 0.00125 190
1 0.0704181 0.134015 0.0012849 -0.0343643 0.00838887 0.253944 0.00125 191
1 0.246077 0.188097 0.00172877 -0.0830017 0.05166 -0.0742536 0.00125 192
1 0.00990978 0.204489 0.00143902 0.074511 0.0371368 -0.221188 0.00125 193
1 0.271994 0.0356782 0.00231802 -0.073645 0.0525683 -0.0499179 0.00125 194
1 0.293981 0.133205 0.00134396 0.00379073 0.0165528 0.180183 0.00125 195
1 0.152531 0.195537 0.00123469 -0.00865451 0.00679384 0.154787 0.00125 196
1 0.0618948 0.183441 0.00134974 0.020959 0.014738 0.0165718 0.00125 197
1 0.0952172 0.147412 0.00155789 0.0010519 0.0350459 0.122262 0.00125 198
1 0.0895854 0.224432 0.00135677 -0.0236953 -0.00431286 0.106696 0.00125 199
1 0.00788257 0.0820653 0.00135738 0.0233778 -0.0195321 -0.290613 0.00125 200
1 0.292753 0.28417 0.00137534 0.0228963 -0.0408501 -0.252026 0.00125 201
1 0.218224 0.232986 0.00138202 -0.0314496 -0.00283647 0.0318404 0.00125 202
1 0.0580665 0.293291 0.00134171 -0.00152224 0.073313 -0.221674 0.00125 203
1 0.158919 0.0688472 0.0014758 0.05297 -0.0336558 0.14857 0.00125 204
1 0.295629 0.195108 0.00133001 -0.0142167 -0.00437459 -0.153845 0.00125 205
1 0.133612 0.293261 0.00160328 0.0048349 -0.00800256 -0.251163 0.00125 206
1 0.0465583 0.168582 0.00163033 -0.000584707 -0.033418 -0.234211 0.00125 207
1 0.0107735 0.0818505 0.00176613 0.00249173 0.0276599 -0.14361 0.00125 208
1 0.251315 0.144086 0.00190995 0.0229791 -0.00198502 -0.16714 0.00125 209
1 0.276776 0.0490537 0.0023592 -0.0298259 -0.00947788 -0.108813 0.00125 210
1 0.111049 0.261678 0.00144326 -0.0362829 -0.0646189 0.139112 0.00125 211
1 0.104915 0.138089 0.0014039 -0.0106387 0.0313224 0.199854 0.00125 212
1 0.0364696 0.0224975 0.00134726 0.0615102 -0.0228626 0.223954 0.00125 213
1 0.0660726 0.10984 0.00216703 0.0876916 -0.00948345 -0.16593 0.00125 214
1 0.116853 0.171926 0.00139113 -0.0239237 -0.0243699 -0.262949 0.00125 215
1 0.15576 0.0567393 0.00159568 -0.0150893 -0.00436631 -0.231221 0.00125 216
1 0.0851627 0.17173 0.00126209 0.00203378 -0.0135163 -0.080385 0.00125 217
1 0.0767818 0.173922 0.00155804 -0.00381716 0.0268805 -0.211777 0.00125 218
1 0.247299 0.0784658 0.00144706 -0.00865618 0.0711141 0.111818 0.00125 219
1 0.131266 0.102732 0.00140981 -0.0161413 -0.0285986 -0.250505 0.00125 220
1 0.258148 0.251309 0.00212681 -0.0238675 0.0869281 -0.0406441 0.00125 221
1 0.266364 0.156564 0.00145537 0.00926583 0.0179312 -0.194904 0.00125 222
1 0.239358 0.217055 0.00216167 -0.00085235 0.0102206 -0.192814 0.00125 223
1 0.224092 0.10268 0.00126829 -0.0235418 0.0202345 -0.249447 0.00125 224
1 0.0613116 0.143408 0.00136805 -0.0265234 0.0233972 -0.233821 0.00125 225
1 0.270047 0.0412017 0.00157892 -0.039347 -0.019694 -0.167349 0.00125 226
1 0.0363225 0.176486 0.00206052 0.0206272 -0.0158026 -0.213743 0.00125 227
1 0.0307076 0.268781 0.00154842 0.0280768 -0.0123326 0.120273 0.00125 228
1 0.0484827 0.0864469 0.00236005 0.0222981 0.0485422 0.0272206 0.00125 229
1 0.194918 0.153114 0.00139043 0.0420847 -0.0680453 -0.272907 0.00125 230
1 0.133095 0.0010145 0.00144099 0.00256381 -0.0262818 0.246983 0.00125 231
1 0.286773 0.147584 0.00144941 0.0131454 0.0521275 -0.0998951 0.00125 232
1 0.250644 0.265321 0.00122993 -0.00987603 0.0144853 0.0999849 0.00125 233
1 0.177602 0.266322 0.00132912 0.0356043 -0.00174886 0.233631 0.00125 234
1 0.111912 0.0946868 0.00153798 -0.00637072 -0.00137953 -0.207872 0.00125 235
1 0.052471 0.213157 0.00150766 -0.0101015 -0.0481491 -0.118805 0.00125 236
1 0.269781 0.0507706 0.00130071 0.023442 0.00567789 0.249951 0.00125 237
1 0.264514 0.068906 0.00123238 0.0053634 -0.000501955 -0.16083 0.00125 238
1 0.0763518 0.224709 0.00143686 -0.0059699 -0.0209334 -0.234134 0.00125 239
1 0.0148091 0.0508481 0.00198151 -0.0193161 -0.0393435 -0.151131 0.00125 240
1 0.175874 0.103182 0.00153474 -0.0212349 -0.115216 -0.0920796 0.00125 241
1 0.295494 0.203873 0.00190824 0.0211771 0.000465018 -0.152924 0.00125 242
1 0.0373881 0.229889 0.00136686 -0.0304752 -0.00801702 0.199457 0.00125 243
1 0.208452 0.168075 0.001403 0.00353898 0.0538873 0.204432 0.00125 244
1 0.025564 0.190858 0.0015586 -0.00723166 0.0267248 0.144943 0.00125 245
1 0.0581942 0.136466 0.00240934 -0.0139197 -0.0127585 -0.0413059 0.00125 246
1 0.223436 0.217445 0.00156552 -0.023768 -0.0123259 -0.281971 0.00125 247
1 0.13039 0.241422 0.00145525 -0.0350819 -0.00229301 0.20697 0.00125 248
1 0.198424 0.177212 0.00139908 0.0126721 0.0208319 -0.215684 0.00125 249
1 0.0205919 0.203066 0.00153219 0.01956 0.0286168 -0.201074 0.00125 250
1 0.141918 0.281386 0.00137506 -0.00504825 0.0841069 0.0388782 0.00125 251
1 0.240379 0.2671 0.00142552 -0.0284612 0.000550401 0.141208 0.00125 252
1 0.0908949 0.000815664 0.00221201 0.0251058 -0.0352515 -0.109665 0.00125 253
1 0.262261 0.0821716 0.00161391 0.0416441 -0.032857 -0.214254 0.00125 254
1 0.203886 0.181807 0.00205509 0.00559204 0.0266549 -0.178022 0.00125 255
1 0.26998 0.0969835 0.00141287 -0.0492459 0.0271681 -0.115189 0.00125 256
1 0.171543 0.0387029 0.00251645 0.00654198 -0.0141782 -0.00495673 0.00125 257
1 0.185232 0.108097 0.00147934 -0.010268 -0.0117805 -0.145034 0.00125 258
1 0.113785 0.276618 0.00163474 0.0144368 -0.0123848 0.126687 0.00125 259
1 0.2923 0.0278031 0.00142384 0.0111977 0.0305682 0.116155 0.00125 260
1 0.209277 0.0733442 0.00184451 0.0200974 -0.00160223 -0.219511 0.00125 261
1 0.201452 0.157935 0.00196031 -0.0150983 -0.0104371 -0.0954424 0.00125 262
1 0.053071 0.259046 0.00207691 -0.00240672 -0.00311488 -0.0182896 0.00125 263
1 0.110842 0.0380592 0.00226564 -0.00546958 -0.0164079 -0.134592 0.00125 264
1 0.285405 0.294363 0.00150603 -0.00268474 0.0215973 -0.252239 0.00125 265
1 0.0871959 0.163718 0.00141907 -0.017522 -0.00791687 -0.0859846 0.00125 266
1 0.15579 0.252482 0.0015048 0.0120835 -0.0245277 0.141697 0.00125 267
1 0.0670793 0.173465 0.00160383 -0.049573 -0.0528922 -0.188211 0.00125 268
1 0.0887838 0.108898 0.00140828 -0.0012168 0.013065 0.122778 0.00125 269
1 0.000283054 0.0555642 0.00168261 0.0461551 -0.0370431 -0.155943 0.00125 270
1 0.216468 0.277233 0.00166758 -0.00123497 -0.0160626 -0.239748 0.00125 271
1 0.209598 0.251 0.0013713 0.0464664 0.0219585 -0.236778 0.00125 272
1 0.25073 0.249586 0.00196038 -0.0242796 -0.0399653 -0.195808 0.00125 273
1 0.0674995 0.0479106 0.00129517 -0.0210732 0.00113529 0.270861 0.00125 274
1 0.297331 0.215723 0.00151462 -0.0302117 -0.0188822 0.108866 0.00125 275
1 0.207913 0.237682 0.00154242 0.0634074 -0.0366952 0.119258 0.00125 276
1 0.152006 0.203188 0.00135779 -0.00744293 0.0111806 -0.222806 0.00125 277
1 0.180161 0.145375 0.0020074 -0.0576859 -0.026142 -0.183691 0.00125 278
1 0.0982147 0.268092 0.00125229 0.030301 0.00654794 -0.247626 0.00125 279
1 0.16867 0.14248 0.00167311 -0.0131061 0.00793767 -0.234231 0.00125 280
1 0.128366 0.213689 0.00164435 0.000390448 -0.0199536 0.170738 0.00125 281
1 0.190936 0.127266 0.00159245 -0.00233723 0.0345691 -0.200812 0.00125 282
1 0.143673 0.0619088 0.0012269 0.0325429 0.00663342 0.00340837 0.00125 283
1 0.184015 0.17744 0.00140009 0.0146288 0.00128803 0.165441 0.00125 284
1 0.00963251 0.114189 0.00147856 -0.0171438 -0.0104741 -0.119551 0.00125 285
1 0.148769 0.00201198 0.00244275 0.00537673 0.0465365 -0.0947386 0.00125 286
1 0.0129012 0.140172 0.00133868 -0.00775572 -0.0347824 -0.265542 0.00125 287
1 0.24098 0.0494551 0.00205157 0.0183498 0.0519643 -0.184969 0.00125 288
1 0.18671 0.253789 0.00125711 0.00519666 0.00725504 -0.212485 0.00125 289
1 0.284799 0.223439 0.00183215 0.111484 -0.0600547 -0.0487516 0.00125 290
1 0.265376 0.0193103 0.00171279 0.00675936 0.00853512 -0.175499 0.00125 291
1 0.00960524 0.0439016 0.00152322 -0.00390012 -0.00470413 0.106617 0.00125 292
1 0.0976393 0.120609 0.00140353 -0.0120807 0.032536 -0.128436 0.00125 293
1 0.147342 0.187407 0.00125935 -0.0228696 0.0389082 0.108219 0.00125 294
1 0.0455727 0.305266 0.00241639 -0.0139441 -0.0495665 -0.0823335 0.00125 295
1 0.263595 0.102751 0.00167632 0.0134656 -0.0377352 0.0982977 0.00125 296
1 0.150107 0.0496239 0.00132641 -0.0411742 -0.085128 -0.108622 0.00125 297
1 0.168949 0.161882 0.00178526 0.0347411 0.030195 -0.0942118 0.00125 298
1 0.00612885 0.0453621 0.00184526 0.0306651 -0.0563575 -0.162105 0.00125 299
1 0.0195119 0.294269 0.00186695 -0.00757788 0.0148351 -0.206623 0.00125 300
1 0.0364084 0.154514 0.00144493 -0.00400769 0.00449297 -0.219035 0.00125 301
1 0.235651 0.0149204 0.00192538 -0.0697558 0.0644264 -0.18441 0.00125 302
1 0.181687 0.278532 0.00184698 -0.0194022 0.0747047 -0.14138 0.00125 303
1 0.120178 0.0743911 0.00199383 0.014062 -0.0482539 -0.0733737 0.00125 304
1 0.260114 0.149058 0.00136994 -0.0347133 0.0459267 -0.227611 0.00125 305
1 0.259333 0.214548 0.00139899 0.0126306 -0.0332762 0.234692 0.00125 306
1 0.262979 0.108504 0.00159038 0.0234694 0.0481949 -0.200227 0.00125 307
1 0.203827 0.210657 0.00239465 0.0129544 -0.0227019 -0.118893 0.00125 308
1 0.285225 0.119673 0.0014491 -0.0120556 0.0268557 0.128647 0.00125 309
1 0.247573 0.117775 0.00147546 0.0157104 -0.015097 0.17235 0.00125 310
1 0.280823 0.280839 0.00132932 -0.00178835 -0.0164409 0.217478 0.00125 311
1 0.135337 0.140951 0.00132073 -0.0162822 -0.0255477 -0.082962 0.00125 312
1 0.198694 0.229902 0.00145268 0.0590784 0.0133433 0.135339 0.00125 313
1 0.259195 0.145137 0.00166511 -0.00230732 0.0105699 0.119513 0.00125 314
1 0.0404631 0.107199 0.00162956 -0.0493898 0.0185227 -0.0737866 0.00125 315
1 0.0276872 0.100141 0.00166814 -0.00511228 0.00155987 -0.267469 0.00125 316
1 0.0553093 0.0714305 0.00174115 -0.0375977 0.013881 -0.185496 0.00125 317
1 0.219256 0.126523 0.00131807 -0.00785442 -0.0881168 0.0603598 0.00125 318
1 0.24074 0.0606022 0.00163174 -0.0162042 0.0254797 -0.178527 0.00125 319
1 0.17198 0.275717 0.00140668 0.0161854 0.0408861 -0.0598313 0.00125 320
1 0.110355 0.0328824 0.00172424 0.0228961 0.00842557 0.105324 0.00125 321
1 0.202003 0.0331358 0.00244536 0.0330234 0.0591001 0.00772851 0.00125 322
1 0.0941931 0.181542 0.00166151 0.0379642 -0.0364469 -0.238899 0.00125 323
1 0.160744 0.243481 0.00141664 0.00838088 0.0200394 0.17783 0.00125 324
1 0.203695 0.0395572 0.00138774 0.00933993 0.00323057 0.168169 0.00125 325
1 0.0515447 0.155216 0.00162464 0.0447176 0.0387514 -0.0614167 0.00125 326
1 0.223178 0.0361317 0.00130356 -0.0346772 0.0156953 0.202917 0.00125 327
1 0.0124713 0.154245 0.0013698 0.0108524 0.0179618 0.180756 0.00125 328
1 0.0792907 0.176619 0.0013474 0.0404634 -0.00295988 -0.138199 0.00125 329
1 0.104557 0.0191756 0.00144448 0.0284946 -0.00480741 -0.101591 0.00125 330
1 0.0137178 0.14264 0.001272 -0.0238815 0.0383772 -0.238852 0.00125 331
1 0.10006 0.0600838 0.00145401 0.0110474 0.0116379 -0.116851 0.00125 332
1 0.0892427 0.149476 0.00170488 0.00544046 0.00889074 0.18665 0.00125 333
1 0.111272 0.0235283 0.00213924 0.0151471 -0.00187662 -0.162655 0.00125 334
1 0.0863992 0.213006 0.00158047 0.00652003 0.0519024 -0.0864051 0.00125 335
1 0.143289 0.174247 0.00141857 0.0182066 0.0348835 -0.25713 0.00125 336
1 0.104619 0.175324 0.00126754 0.0270283 0.0396123 -0.122964 0.00125 337
1 0.0468594 0.164597 0.00129093 0.0142723 -0.0170771 -0.222214 0.00125 338
1 0.0461352 0.286362 0.0013995 0.00672034 -0.0044723 -0.23979 0.00125 339
1 0.246739 0.234226 0.00140896 0.00650126 -0.0177917 -0.236192 0.00125 340
1 0.0325161 0.231006 0.00140263 -0.0269834 0.0417371 0.158203 0.00125 341
1 0.298221 0.171714 0.00139674 -0.00699586 -0.00377241 -0.205407 0.00125 342
1 0.236964 0.071709 0.0012894 0.0301873 0.0345436 -0.0924564 0.00125 343
1 0.00434859 0.179268 0.001304 0.0256464 0.0177814 0.197128 0.00125 344
1 0.0156589 0.0357979 0.0015557 0.0109355 0.0276897 0.177935 0.00125 345
1 0.13247 0.0569492 0.00140759 0.0336417 0.0430727 -0.236276 0.00125 346
1 0.0202185 0.212199 0.00129027 -0.000968059 0.01559 0.209774 0.00125 347
1 0.00254424 0.284732 0.00188878 0.0436707 -0.0315992 -0.0927367 0.00125 348
1 0.0207913 0.193764 0.00152009 0.00646012 0.0210316 -0.246789 0.00125 349
1 0.0532423 0.13575 0.00154741 0.00758497 -0.00638163 0.203759 0.00125 350
1 0.0179582 0.103241 0.00133163 -0.0448767 -0.00264519 -0.204405 0.00125 351
1 0.280778 0.00213838 0.00132088 -0.0215518 0.0335958 0.204819 0.00125 352
1 0.27937 0.162145 0.00147003 -0.0333909 -0.0213784 0.0313427 0.00125 353
1 0.14148 0.0104792 0.00218447 0.0693525 -0.051596 -0.104946 0.00125 354
1 0.19357 0.164992 0.00128736 -0.0735525 0.0395103 -0.205037 0.00125 355
1 0.297008 0.257633 0.00187045 0.116001 0.0954588 -0.0846185 0.00125 356
1 0.133681 0.18905 0.00146234 -0.0024956 -0.0466402 0.15694 0.00125 357
1 0.165802 0.150125 0.00158488 0.0582671 0.0130045 0.145225 0.00125 358
1 0.156202 0.154591 0.0013991 0.021914 -0.0104449 -0.253993 0.00125 359
1 0.118694 0.0518949 0.00182631 -0.0457839 0.0243871 -0.202728 0.00125 360
1 0.247588 0.294737 0.00154181 -0.00537375 0.0108322 0.146599 0.00125 361
1 0.00170879 0.174121 0.00130337 0.0719899 -0.0145602 -0.203875 0.00125 362
1 0.217373 0.224793 0.00192084 -0.0233563 0.0354772 -0.195232 0.00125 363
1 0.115331 0.104858 0.00152813 -0.0354234 -0.0092121 0.119263 0.00125 364
1 0.0899892 0.0886249 0.00199066 0.0132474 -0.0241845 -0.0662123 0.00125 365
1 0.225681 0.152471 0.00161503 0.00742064 0.00965101 -0.175762 0.00125 366
1 0.127857 0.10835 0.00126102 0.013212 -0.00391714 0.186161 0.00125 367
1 0.0586933 0.275943 0.00144381 -0.0106626 0.0384707 0.140461 0.00125 368
1 0.0919304 0.00953539 0.00177863 0.0170596 0.00573179 -0.049038 0.00125 369
1 0.217053 0.2111 0.00124506 -0.0213709 0.00394217 0.0820994 0.00125 370
1 0.237927 0.234276 0.00166378 -0.0114439 -0.0571052 -0.199063 0.00125 371
1 0.101872 0.169692 0.0012473 0.0629652 0.00175791 0.20977 0.00125 372
1 0.250146 0.0235307 0.00241251 0.00158916 0.0235462 -0.0426089 0.00125 373
1 0.00932468 0.0515626 0.00128631 0.0102022 0.0113869 -0.0281039 0.00125 374
1 0.00266488 0.257717 0.00241082 -0.0426926 -0.00664214 -0.0896421 0.00125 375
1 0.108952 0.00866591 0.00195877 -0.015209 -0.000140349 -0.0686098 0.00125 376
1 0.266726 0.0172349 0.00135738 0.00270057 -0.0172276 0.229314 0.00125 377
1 0.1479 0.0689601 0.00124754 -0.0192964 -0.0288474 0.212543 0.00125 378
1 0.209997 0.15446 0.00145612 -0.0303254 0.0190426 -0.192126 0.00125 379
1 0.142846 0.271756 0.00146309 -0.043917 0.0305871 0.120963 0.00125 380
1 0.271614 0.211167 0.00132005 -0.0123837 0.0429451 -0.236864 0.00125 381
1 0.302819 0.285671 0.00139872 -0.00203701 0.00103862 0.187911 0.00125 382
1 0.0643702 0.134801 0.00185682 0.0100377 0.00177643 -0.20474 0.00125 383
1 0.0462586 0.178835 0.0017224 0.044427 -0.0126542 -0.23077 0.00125 384
1 0.0158608 0.281439 0.00123763 0.0133341 -0.0491918 0.0811932 0.00125 385
1 0.167181 0.0695566 0.00192451 -0.00341558 -0.00333694 -0.191077 0.00125 386
1 0.169189 0.076664 0.0016848 -0.0150174 -0.0101527 -0.191111 0.00125 387
1 0.0849218 0.00732914 0.00126161 -0.0149414 -0.0347791 -0.228356 0.00125 388
1 0.157935 0.263489 0.00158798 0.020443 -0.00215282 -0.17425 0.00125 389
1 0.170972 0.250333 0.00135728 0.0117969 -0.0837365 -0.23731 0.00125 390
1 0.036073 0.271892 0.00129761 0.00581286 -0.0125061 -0.236403 0.00125 391
1 0.00283044 0.279225 0.00203468 0.00544571 -0.0162867 -0.14474 0.00125 392
1 0.105518 0.26304 0.00217455 0.0261813 0.0104592 -0.159059 0.00125 393
1 0.0377202 0.174037 0.00128637 -0.0848226 0.00635677 -0.251739 0.00125 394
1 0.0435613 0.157264 0.00217843 -0.00101365 0.0182851 -0.151991 0.00125 395
1 0.165837 0.130179 0.00164531 0.00796585 -0.00274906 -0.0726421 0.00125 396
1 0.29861 0.0996598 0.00248363 0.0125298 0.0378931 -0.0379489 0.00125 397
1 0.30697 0.20389 0.00148738 0.021969 0.0176171 -0.197462 0.00125 398
1 0.137071 0.103325 0.00214481 -0.0333659 -0.0188013 -0.168273 0.00125 399
1 0.158143 0.148111 0.00131058 -0.0293927 -0.060895 -0.122925 0.00125 400