ITEM: TIMESTEP
1000000
ITEM: NUMBER OF ATOMS
10000
ITEM: BOX BOUNDS pp pp ff
0.0000000000000000e+00 5.3711590249999996e-01
0.0000000000000000e+00 5.3711590249999996e-01
-1.2500000000000001e-02 1.2500000000000001e-02
ITEM: ATOMS type x y z vx vy vz radius id
1 0.419004 0.230907 0.00131248 -0.00728343 0.00540384 0.202656 0.00125 1
1 0.310256 0.24029 0.00237494 -0.00955478 0.00210266 -0.0479157 0.00125 2
1 0.401358 0.117105 0.00156673 -0.0281866 0.000233959 0.098601 0.00125 3
1 0.0889748 0.164652 0.00156399 0.00911836 0.00864748 -0.176448 0.00125 4
1 0.210517 0.332022 0.00144204 0.000467608 0.00680665 0.136812 0.00125 5
1 0.478567 0.340371 0.00137039 0.012565 0.00376056 0.225638 0.00125 6
1 0.433765 0.0934326 0.00139906 0.00341726 -0.013136 -0.199959 0.00125 7
1 0.227384 0.346407 0.00210506 -0.0101454 0.0103903 -0.168204 0.00125 8
1 0.134459 0.25339 0.00141333 0.00509009 -0.00444913 0.211464 0.00125 9
1 0.0619945 0.287993 0.0013482 -0.0150869 0.00198325 0.27151 0.00125 10
1 0.112509 0.492069 0.00174572 0.0017951 -0.0026903 0.0747613 0.00125 11
1 0.460421 0.477152 0.00138663 0.00951545 0.000171195 0.157263 0.00125 12
1 0.133925 0.219216 0.0018754 -0.00865573 0.00480518 -0.0313484 0.00125 13
1 0.263688 0.145362 0.00136731 -0.0077079 0.00592122 -0.228056 0.00125 14
1 0.40038 0.17093 0.00131459 -0.00814712 0.0290033 -0.231285 0.00125 15
1 0.0957369 0.030755 0.00245192 -0.00319149 -0.00534666 0.0341345 0.00125 16
1 0.0401297 0.136447 0.00154292 -0.00285343 -0.0207683 -0.229628 0.00125 17
1 0.175406 0.186628 0.00195428 0.00992855 -0.0045641 -0.186491 0.00125 18
1 0.01696 0.516362 0.001272 -0.042279 -0.000718135 -0.196566 0.00125 19
1 0.0390261 0.0176312 0.00122896 -0.0156287 -0.0228655 0.0311473 0.00125 20
1 0.169835 0.246509 0.00146639 -0.0288617 -0.00933913 0.110127 0.00125 21
1 0.00410664 0.00916291 0.00235895 -0.00863132 0.00375687 0.0274228 0.00125 22
1 0.479309 0.186295 0.00146724 0.00453825 0.013057 0.129436 0.00125 23
1 0.504962 0.519699 0.00170913 -0.00602203 0.00206012 -0.0906117 0.00125 24
1 0.243782 0.110082 0.00235816 -0.00029245 -0.0131107 -0.0485565 0.00125 25
1 0.238971 0.270091 0.00134982 -0.00260218 0.00533665 -0.316012 0.00125 26
1 0.328834 0.110369 0.00139219 0.00205965 -0.00697228 -0.236463 0.00125 27
1 0.315984 0.10277 0.00134778 0.0107653 0.0179115 0.197661 0.00125 28
1 0.26607 0.533838 0.00192053 -0.0129792 -0.0199334 -0.202358 0.00125 29
1 0.458852 0.269789 0.0022646 -0.0101122 -0.00421052 -0.049706 0.00125 30
1 0.285827 0.293053 0.00214056 0.00236953 -0.00344879 -0.00912528 0.00125 31
1 0.240795 0.350848 0.00144086 0.00040676 0.00544488 -0.231636 0.00125 32
1 0.0414998 0.0537004 0.001495 -0.0163283 0.00200521 -0.238376 0.00125 33
1 0.407223 0.289382 0.00151255 -0.00472727 -0.00519586 -0.238198 0.00125 34
1 0.394644 0.00730041 0.0013233 -0.0043513 -0.00363412 -0.236738 0.00125 35
1 0.36914 0.18104 0.00247648 -0.00673396 0.00720133 0.0304871 0.00125 36
1 0.47547 0.472182 0.00243605 0.0108802 -0.0136051 -0.0200002 0.00125 37
1 0.0147076 0.487431 0.00123412 -0.00042213 -0.00165766 0.133941 0.00125 38
1 0.517258 0.364232 0.00194572 -0.00894869 0.00306008 -0.230091 0.00125 39
1 0.31881 0.349405 0.00132479 0.00221979 0.01321 0.193484 0.00125 40
1 0.469479 0.0802151 0.00236621 0.016846 -0.00264158 -0.107853 0.00125 41
1 0.314201 0.161265 0.00157666 0.00520586 0.00102703 -0.0571457 0.00125 42
1 0.394701 0.206055 0.00205695 0.00215971 -0.0177571 0.00270892 0.00125 43
1 0.218359 0.218715 0.00142936 0.00267069 -0.00821251 -0.232605 0.00125 44
1 0.391407 0.33319 0.00177851 0.0133451 0.00771328 0.132418 0.00125 45
1 0.10151 0.0802415 0.00133269 0.00886734 -0.0086335 -0.235969 0.00125 46
1 0.439735 0.330774 0.00138342 0.00202946 -0.00555792 -0.238133 0.00125 47
1 0.0261682 0.484537 0.00127312 0.0130165 -0.0529419 0.170326 0.00125 48
1 0.0561369 0.0112179 0.00156106 -0.0106046 -0.00251952 -0.0743416 0.00125 49
1 0.161091 0.411138 0.00140487 -0.0167739 0.00129976 0.148671 0.00125 50
1 0.417222 0.392743 0.00170716 0.00606488 0.00385265 0.0655923 0.00125 51
1 0.310462 0.244149 0.00165913 -0.00206185 0.00368441 -0.0873702 0.00125 52
1 0.53099 0.334659 0.00136626 -0.008542 0.0208395 -0.198711 0.00125 53
1 0.49189 0.119121 0.00125216 -0.00366009 0.00816624 0.156175 0.00125 54
1 0.336012 0.356231 0.00149013 -0.00234122 0.0132831 -0.193154 0.00125 55
1 0.087172 0.449881 0.00125098 0.000695197 -0.000330974 -0.228352 0.00125 56
1 0.0982337 0.35201 0.00140062 0.00286351 0.00229161 -0.238984 0.00125 57
1 0.301987 0.180586 0.00243092 -0.00585224 -0.0173771 -0.0360835 0.00125 58
1 0.156384 0.0732848 0.00157597 -0.00352356 -0.00334768 -0.18217 0.00125 59
1 0.0897177 0.230359 0.00223137 -0.0180081 0.0111023 -0.0506459 0.00125 60
1 0.0303557 0.165779 0.0016038 -0.0128522 -0.0136575 -0.229288 0.00125 61
1 0.34558 0.175856 0.00155642 -0.00260417 0.000632879 -0.0613906 0.00125 62
1 0.142348 0.0300455 0.00147609 -0.0139457 -0.0305663 -0.233891 0.00125 63
1 0.209174 0.118849 0.00143547 -0.0150372 0.00494586 0.219143 0.00125 64
1 0.194075 0.498701 0.00134868 -0.01112 -0.0105385 0.165802 0.00125 65
1 0.236034 0.284619 0.00167775 -0.00885186 0.00409277 0.0957928 0.00125 66
1 0.296179 0.0282888 0.00168009 -0.0161769 -0.00116505 -0.0864747 0.00125 67
1 0.38099 0.42518 0.00128924 0.00233667 0.0132554 -0.237471 0.00125 68
1 0.323659 0.051892 0.00247727 -0.00841054 -0.00117546 -0.0461922 0.00125 69
1 0.260273 0.275726 0.00142382 0.0027345 0.00494102 -0.24246 0.00125 70
1 0.208254 0.482614 0.00140316 0.00163433 0.0162865 -0.237388 0.00125 71
1 0.268927 0.00960208 0.00180141 0.0166157 -0.0215621 0.143176 0.00125 72
1 0.00566477 0.0121795 0.00144818 0.00711649 -0.00904086 0.165304 0.00125 73
1 0.508601 0.0854158 0.00132278 -0.000907046 0.00321249 0.195295 0.00125 74
1 0.479798 0.0182452 0.00133804 0.000205965 0.0159239 -0.236747 0.00125 75
1 0.034326 0.217972 0.00164143 -0.000385587 -0.00622151 -0.226669 0.00125 76
1 0.428918 0.000866548 0.00127615 -0.0160375 0.00954779 -0.232074 0.00125 77
1 0.0587662 0.0105109 0.00136211 -0.000295283 -0.00436188 -0.207637 0.00125 78
1 0.108711 0.493475 0.00166544 0.0132642 -0.000373233 -0.228988 0.00125 79
1 0.0757566 0.295103 0.00138087 0.0197006 0.00828014 -0.223218 0.00125 80
1 0.412808 0.177352 0.00131244 0.00423514 -0.00941973 -0.235587 0.00125 81
1 0.263201 0.0969596 0.00133777 -0.00205296 0.000984423 0.165568 0.00125 82
1 0.0782018 0.110286 0.00207827 -0.0172815 0.00704712 -0.188178 0.00125 83
1 0.00995419 0.281835 0.00172471 0.00388563 0.00879495 -0.224551 0.00125 84
1 0.339713 0.172528 0.00247001 0.0157788 -0.0249213 -0.0362827 0.00125 85
1 0.171332 0.0665321 0.00176471 0.00292133 0.00605106 0.129126 0.00125 86
1 0.429859 0.343387 0.00138877 -0.00923216 -0.000776688 0.157553 0.00125 87
1 0.081359 0.166824 0.00162669 0.00329816 -0.00348042 0.0908638 0.00125 88
1 0.326934 0.345256 0.00122513 -0.0123487 -0.0112463 0.0364589 0.00125 89
1 0.351253 0.436809 0.00250069 0.000566078 -0.00126747 -0.0614828 0.00125 90
1 0.283525 0.00519719 0.00183904 -0.00851476 -8.54042e-05 -0.067163 0.00125 91
1 0.518327 0.118692 0.00176329 0.00845474 0.00647955 0.145332 0.00125 92
1 0.187834 0.48266 0.00136738 0.00835485 0.000251642 0.160828 0.00125 93
1 0.531307 0.495631 0.0014692 0.0167264 8.9141e-05 0.126506 0.00125 94
1 0.236715 0.0529235 0.00134076 -0.00873502 0.0050716 -0.00376306 0.00125 95
1 0.0702387 0.531729 0.00135086 -0.0149743 -0.00323122 0.145595 0.00125 96
1 0.502364 0.298589 0.00204672 -0.00523644 -0.00322763 -0.217923 0.00125 97
1 0.41973 0.123333 0.00207348 -0.0111633 0.0233032 0.00406273 0.00125 98
1 0.511469 0.43298 0.00169528 0.016656 0.00823575 0.096646 0.00125 99
1 0.370598 0.0833785 0.00134371 0.00460024 -0.0178291 -0.234993 0.00125 100
1 0.381947 0.0633065 0.00160334 0.00133375 -0.00399974 -0.0936706 0.00125 101
1 0.48016 0.323842 0.0012568 0.0320912 -0.0198557 -0.223507 0.00125 102
1 0.00101026 0.121963 0.00177392 0.0115598 0.0112659 0.0855325 0.00125 103
1 0.179663 0.244256 0.00216754 0.00371983 0.00145275 -0.0426876 0.00125 104
1 0.0458405 0.208806 0.00138655 0.0141793 -0.006552 0.156806 0.00125 105
1 0.0536026 0.0838353 0.00128894 -0.0295267 0.0180215 0.186301 0.00125 106
1 0.452835 0.0698242 0.00231933 -0.0025088 -0.00357433 -0.152638 0.00125 107
1 0.0242765 0.472478 0.00203055 -0.0499108 -0.0278257 -0.00367147 0.00125 108
1 0.278958 0.471421 0.00235459 -0.00255089 0.00213164 -0.0436101 0.00125 109
1 0.360816 0.137906 0.00163827 -0.000957789 0.00486775 0.0904186 0.00125 110
1 0.163048 0.0376579 0.0016174 0.0325761 0.0199702 0.0981763 0.00125 111
1 0.170377 0.344597 0.00170171 0.00644644 0.01114 -0.246409 0.00125 112
1 0.346344 0.350893 0.00134826 0.00464651 0.0041253 -0.221872 0.00125 113
1 0.471029 0.48893 0.00135859 0.0125788 -0.0176532 -0.237633 0.00125 114
1 0.168396 0.325552 0.00133574 0.0135631 0.00172494 0.170598 0.00125 115
1 0.146842 0.046235 0.00132999 0.00171885 0.0146421 -0.235337 0.00125 116
1 0.249294 0.0630606 0.00233095 -0.00432013 -0.00481881 -0.0446763 0.00125 117
1 0.531729 0.420148 0.00139506 -0.000329278 -0.0181161 -0.238851 0.00125 118
1 0.0305389 0.323646 0.00159997 -0.00658919 -0.00557224 0.0942849 0.00125 119
1 0.4387 0.239405 0.00147806 0.00117449 0.0186687 0.151115 0.00125 120
1 0.323923 0.126989 0.00152272 -0.0126036 -0.00626828 -0.190337 0.00125 121
1 0.144966 0.456216 0.00125537 -0.00182741 0.0212161 -0.192574 0.00125 122
1 0.147413 0.331564 0.00144249 0.00390567 -0.00438483 -0.239637 0.00125 123
1 0.445685 0.389848 0.00231393 0.000629816 -0.013354 -0.0455413 0.00125 124
1 0.208384 0.45255 0.00126161 0.00478144 -0.0270161 -0.0566165 0.00125 125
1 0.240362 0.445803 0.00170245 -0.00587182 -0.00162822 -0.225821 0.00125 126
1 0.0181779 0.0977453 0.00180468 -0.0111656 0.0125191 -0.0787386 0.00125 127
1 0.446088 0.323563 0.00135047 0.00489167 0.000243965 0.227658 0.00125 128
1 0.428529 0.331327 0.00148132 -0.00761263 0.00176407 -0.195933 0.00125 129
1 0.167955 0.125531 0.00127477 0.000812093 -0.00249142 0.189585 0.00125 130
1 0.175285 0.0472331 0.00123179 -0.00184549 0.0149964 -0.127768 0.00125 131
1 0.235168 0.111482 0.00211664 0.000176432 -0.00544846 -0.0365316 0.00125 132
1 0.203791 0.200457 0.00137341 -0.0120505 0.0189815 0.127765 0.00125 133
1 0.218055 0.400514 0.00161907 -0.015052 -0.00115439 -0.227035 0.00125 134
1 0.179889 0.0104204 0.00131929 0.0113382 -0.000675425 -0.311244 0.00125 135
1 0.323341 0.423429 0.0012303 0.0109484 0.00199106 -0.043979 0.00125 136
1 0.255895 0.116183 0.00126722 0.0249837 -0.00120733 0.190353 0.00125 137
1 0.477782 0.011873 0.00130426 -0.044987 0.00147023 -0.227674 0.00125 138
1 0.283122 0.331864 0.00186938 0.00655049 -0.00826303 -0.0741836 0.00125 139
1 0.344809 0.181926 0.00126549 0.0416628 -0.0562992 -0.20719 0.00125 140
1 0.106972 0.349484 0.00155166 0.00251647 -0.0102543 0.232137 0.00125 141
1 0.515292 0.0636044 0.00190012 0.0126513 0.00590075 -0.204955 0.00125 142
1 0.433695 0.230587 0.00208204 0.00813671 0.00849446 -0.187035 0.00125 143
1 0.172066 0.192633 0.00132034 0.00611103 0.0199589 -0.216553 0.00125 144
1 0.161059 0.0174194 0.00239887 0.00417127 -0.00347903 -0.0408121 0.00125 145
1 0.0513967 0.39489 0.00204966 -0.00383691 0.00423888 -0.0269873 0.00125 146
1 0.140617 0.151467 0.00249147 -0.0137642 0.0139906 -0.0488764 0.00125 147
1 0.24673 0.245973 0.00127853 0.00186963 0.00630964 0.206305 0.00125 148
1 0.414963 0.252138 0.00181152 0.020512 -0.0118739 -0.213328 0.00125 149
1 0.524553 0.440279 0.00143088 0.0103966 0.00862794 -0.193354 0.00125 150
1 0.243143 0.0878111 0.00130413 0.00555935 0.00786135 -0.283347 0.00125 151
1 0.392369 0.20207 0.00125022 -0.0243622 0.00113794 -0.229115 0.00125 152
1 0.503556 0.390989 0.00138834 -0.00223155 0.0039368 0.180685 0.00125 153
1 0.469876 0.429378 0.00137072 0.0185518 -0.00457614 0.192962 0.00125 154
1 0.38191 0.121005 0.00142594 -0.000693116 -0.0102415 0.225514 0.00125 155
1 0.448601 0.517101 0.00174517 0.0119522 -0.00305067 -0.222576 0.00125 156
1 0.20395 0.422573 0.0015122 0.0293655 -0.00597849 -0.175451 0.00125 157
1 0.08241 0.146845 0.00145761 -0.0146371 -0.0201827 0.129937 0.00125 158
1 0.342442 0.263851 0.00146336 -0.00415009 -0.0180688 0.0866595 0.00125 159
1 0.25853 0.0271382 0.00132883 0.00752988 -0.0098063 0.267275 0.00125 160
1 0.0462921 0.0989352 0.00136839 -0.00685235 0.0181171 -0.221567 0.00125 161
1 0.16568 0.143038 0.00147784 0.0127357 0.0033707 0.122171 0.00125 162
1 0.032989 0.243971 0.00152931 0.0186245 -0.0249617 -0.261874 0.00125 163
1 0.0742061 0.450924 0.00148289 0.0114883 -0.0166953 -0.178487 0.00125 164
1 0.243124 0.341636 0.00138689 -0.00340075 0.000337031 0.154229 0.00125 165
1 0.167447 0.395118 0.00135106 -0.0178891 0.0304345 0.226222 0.00125 166
1 0.120425 0.143808 0.00134395 0.00515831 0.00594016 0.170871 0.00125 167
1 0.397878 0.443638 0.00188664 -0.00722168 -0.0158073 -0.0729557 0.00125 168
1 0.0475203 0.31969 0.00129203 0.0064897 -0.0209335 -0.210343 0.00125 169
1 0.327135 0.519591 0.00141321 -0.00168649 0.00143744 -0.102115 0.00125 170
1 0.071 0.498238 0.00147833 0.00551738 -0.00442007 -0.229251 0.00125 171
1 0.0398858 0.463244 0.00145229 -0.0159626 -0.0105411 0.220173 0.00125 172
1 0.242821 0.152081 0.00141694 9.64985e-05 0.00576627 -0.224849 0.00125 173
1 0.486883 0.185582 0.0013186 -0.00511821 0.00415785 -0.228129 0.00125 174
1 0.0449799 0.145275 0.00165561 0.0180968 0.00436741 0.0945276 0.00125 175
1 0.0809712 0.364607 0.00125986 0.00253723 -0.00526473 0.25735 0.00125 176
1 0.14751 0.0394228 0.00125316 0.00958126 -0.0278829 -0.248791 0.00125 177
1 0.388655 0.221155 0.0016774 -0.0080901 -0.0073928 -0.247142 0.00125 178
1 0.298097 0.441314 0.00149267 -0.00261641 -0.00249762 -0.0907118 0.00125 179
1 0.182314 0.135482 0.00123483 -0.00407051 0.00689917 0.14104 0.00125 180
1 0.227379 0.255804 0.00173036 -0.00141345 -0.00435846 -0.200258 0.00125 181
1 0.191285 0.33891 0.00135102 -0.00800655 -0.000297278 0.187816 0.00125 182
1 0.210869 0.293274 0.00128864 0.0046655 -0.00950424 -0.233 0.00125 183
1 0.0373524 0.262744 0.00159844 -0.00383918 -0.0163556 -0.0941427 0.00125 184
1 0.495988 0.232885 0.00137342 0.0179796 0.00185613 -0.229235 0.00125 185
1 0.367052 0.225128 0.0012758 0.0135685 -0.016401 -0.252629 0.00125 186
1 0.398818 0.197554 0.00147057 -0.00196496 -0.000393557 -0.240863 0.00125 187
1 0.0835386 0.33898 0.00144907 0.0146085 -0.0195079 0.227481 0.00125 188
1 0.103927 0.421335 0.00138325 0.00643423 -0.0115372 0.180896 0.00125 189
1 0.199685 0.156869 0.00125882 0.00557531 -0.00369967 -0.23069 0.00125 190
1 0.163964 0.430878 0.00238456 -0.0019722 -0.00110579 -0.10203 0.00125 191
1 0.224235 0.301148 0.00140027 -0.000672172 0.000511384 -0.182248 0.00125 192
1 0.130994 0.202861 0.00148148 -0.0247598 0.0091105 -0.0755483 0.00125 193
1 0.508201 0.00972946 0.00143181 0.00988508 -0.00529281 -0.230521 0.00125 194
1 0.105125 0.0495352 0.00128115 0.00112369 -0.0104121 0.205561 0.00125 195
1 0.482992 0.17689 0.00125989 0.00297752 -0.0145833 -0.254914 0.00125 196
1 0.384788 0.0885133 0.00123043 0.00252262 0.0057213 -0.0426047 0.00125 197
1 0.175858 0.43196 0.00137502 0.0139541 0.00486549 0.160698 0.00125 198
1 0.510015 0.254517 0.0014654 -0.0131019 0.0201467 0.209185 0.00125 199
1 0.378161 0.289078 0.00127823 0.00102097 -0.0217393 0.273041 0.00125 200
1 0.0905915 0.297041 0.0012954 0.00995084 0.00966163 -0.223876 0.00125 201
1 0.465581 0.457648 0.001409 -0.0267135 -0.0175769 -0.177425 0.00125 202
1 0.470799 0.163686 0.00199617 0.0128405 -0.0024222 -0.0656246 0.00125 203
1 0.118743 0.0466235 0.00229168 -0.0134728 0.0286871 -0.160207 0.00125 204
1 0.172889 0.128022 0.00133515 0.00796696 -0.000951044 0.189954 0.00125 205
1 0.0632605 0.370239 0.00229646 -0.0214056 0.0113672 -0.130598 0.00125 206
1 0.378442 0.0441635 0.00157899 -0.0100329 0.00155497 0.0961248 0.00125 207
1 0.225901 0.0108825 0.00198449 -0.032244 -0.0028178 -0.186112 0.00125 208
1 0.109891 0.248803 0.00218034 -0.013873 -0.00936084 0.0136148 0.00125 209
1 0.303717 0.177447 0.00162163 -0.0013988 0.00442414 -0.23451 0.00125 210
1 0.210526 0.40863 0.0012419 0.00379493 -0.00739625 -0.213775 0.00125 211
1 0.0418296 0.227877 0.00127653 0.0106703 0.000693318 -0.102853 0.00125 212
1 0.0249205 0.353134 0.00229472 -0.0010359 -0.00473174 -0.0419846 0.00125 213
1 0.330188 0.00955485 0.0022104 0.0174726 0.0170562 -0.152274 0.00125 214
1 0.406335 0.375036 0.00138711 0.00948144 0.00419892 -0.298639 0.00125 215
1 0.308138 0.212333 0.00141616 0.0233414 0.00550184 0.241413 0.00125 216
1 0.237454 0.10774 0.00138548 0.0128529 -0.00590731 -0.185412 0.00125 217
1 0.0288093 0.483203 0.0013112 -0.000515431 -0.00275361 -0.223542 0.00125 218
1 0.352091 0.0346982 0.00162499 0.00760161 0.00235189 -0.178984 0.00125 219
1 0.346704 0.0228063 0.00148936 0.0310624 -0.0159187 0.225628 0.00125 220
1 0.224585 0.211813 0.00127158 0.00674808 0.00346924 0.260416 0.00125 221
1 0.407079 0.465862 0.0014284 -0.0122665 -0.00818895 -0.0987653 0.00125 222
1 0.485706 0.318971 0.00135224 -0.00904923 0.0123789 0.192591 0.00125 223
1 0.343304 0.380824 0.00192658 -0.0111799 0.0151753 -0.0698204 0.00125 224
1 0.1771 0.00617296 0.00134056 -0.00749019 0.00536699 -0.234669 0.00125 225
1 0.465904 0.416356 0.00125353 0.00217859 0.00941893 0.0223049 0.00125 226
1 0.232567 0.345363 0.00143655 -0.0206815 -0.00828793 -0.10273 0.00125 227
1 0.0403238 0.115636 0.00137447 -0.00133622 -0.0074489 0.18227 0.00125 228
1 0.323226 0.202479 0.00181164 -0.0121432 0.0122968 -0.215663 0.00125 229
1 0.411908 0.439798 0.00123676 -0.00230434 -0.00638049 -0.17827 0.00125 230
1 0.376871 0.375474 0.00163938 -0.0196691 0.00990006 -0.162325 0.00125 231
1 0.111766 0.0983747 0.00140782 0.0092205 0.00675377 -0.230935 0.00125 232
1 0.516008 0.172297 0.00241165 0.0143602 0.00960512 -0.0513284 0.00125 233
1 0.11755 0.233497 0.00131588 -0.000974762 0.00628132 -0.234621 0.00125 234
1 0.100791 0.27522 0.00206455 0.00470084 0.000609202 -0.179653 0.00125 235
1 0.497074 0.461333 0.00148751 0.0113219 -0.00286005 -0.225337 0.00125 236
1 0.24755 0.184402 0.00226886 -0.0157577 0.0231864 -0.0479377 0.00125 237
1 0.189966 0.450616 0.00164075 0.00444674 0.0169734 0.0866509 0.00125 238
1 0.100785 0.392793 0.00130553 0.0181242 -0.00267487 0.177841 0.00125 239
1 0.382963 0.031198 0.00145919 0.00366108 0.0106332 0.132395 0.00125 240
1 0.27978 0.134915 0.0013335 -0.00727761 -0.00241853 0.192699 0.00125 241
1 0.125375 0.437508 0.00247433 -0.0263871 0.0195113 0.030978 0.00125 242
1 0.501592 0.51471 0.00127214 -0.00186147 0.00292151 0.208796 0.00125 243
1 0.255362 0.130722 0.0013687 0.00361805 -0.0111089 -0.24288 0.00125 244
1 0.166153 0.199429 0.00156005 0.000547355 0.0214077 0.135156 0.00125 245
1 0.0963648 0.089135 0.00186759 0.00763446 -0.0023416 -0.209148 0.00125 246
1 0.513125 0.283319 0.00166152 -0.015881 -0.00536158 -0.0874945 0.00125 247
1 0.46689 0.284172 0.0017135 -0.000361608 0.00871685 -0.0851199 0.00125 248
1 0.292794 0.148443 0.00178402 -0.00768683 0.00991887 -0.0791615 0.00125 249
1 0.118577 0.0418774 0.00161813 0.0155178 0.0114037 -0.0927809 0.00125 250
1 0.069532 0.384323 0.00152194 0.0233216 0.00805057 0.0663949 0.00125 251
1 0.0578125 0.274585 0.0013524 0.00783464 -0.00960891 0.0496176 0.00125 252
1 0.0129746 0.520515 0.00123078 -0.00524258 0.00295868 0.0402262 0.00125 253
1 0.0697813 0.375628 0.00133559 -0.0208823 -0.00281875 -0.219418 0.00125 254
1 0.368615 0.369827 0.00165694 0.00893104 0.0108854 -0.0552318 0.00125 255
1 0.405231 0.263104 0.00144513 -0.000982656 0.0247406 0.137001 0.00125 256
1 0.436717 0.49048 0.00130718 0.0074691 -0.0123766 -0.207522 0.00125 257
1 0.0344027 0.141341 0.00135751 0.00821212 -0.0249892 0.229589 0.00125 258
1 0.254792 0.0925778 0.00146161 0.037255 -0.0707104 -0.100421 0.00125 259
1 0.418317 0.240611 0.00174918 -0.0261434 -0.00954511 -0.218624 0.00125 260
1 0.241874 0.407158 0.00126745 -0.000102186 -0.0102236 -0.230817 0.00125 261
1 0.0765723 0.132309 0.00129077 0.00568072 0.0192135 -0.229366 0.00125 262
1 0.297382 0.154379 0.00133203 -0.0134938 -0.0211893 0.191602 0.00125 263
1 0.196648 0.23945 0.0017211 0.0693784 0.0135287 -0.258675 0.00125 264
1 0.361778 0.283444 0.001432 0.000103863 -0.000417904 0.141816 0.00125 265
1 0.0311709 0.103917 0.00143925 -0.019724 0.00537795 -0.303264 0.00125 266
1 0.379089 0.0755356 0.00186037 0.0113118 -0.0124258 -0.073678 0.00125 267
1 0.297351 0.282835 0.00134779 0.0204062 0.0103812 0.16678 0.00125 268
1 0.156885 0.214044 0.00173932 0.014866 0.0112689 -0.0823873 0.00125 269
1 0.459064 0.284218 0.00137637 0.000391344 0.0174988 0.157709 0.00125 270
1 0.517387 0.192082 0.00134996 0.00983919 -0.0477855 -0.236133 0.00125 271
1 0.224342 0.450425 0.00132798 0.00236038 0.0151638 -0.225274 0.00125 272
1 0.191184 0.13918 0.00169434 -0.0139717 0.0097792 0.0622466 0.00125 273
1 0.14755 0.0575878 0.00203472 -0.000878072 0.00257959 -0.0325381 0.00125 274
1 0.201207 0.138564 0.00176711 -0.0094499 0.000549288 -0.221048 0.00125 275
1 0.349994 0.237859 0.00128754 -0.00712933 0.0289112 0.168922 0.00125 276
1 0.023378 0.072646 0.00200776 -0.00805223 0.000801096 -0.0779354 0.00125 277
1 0.101825 0.104291 0.00154743 -0.000906115 0.00866932 -0.188838 0.00125 278
1 0.289515 0.135855 0.00136459 0.00668098 0.00175785 0.158102 0.00125 279
1 0.296387 0.0709612 0.00126859 0.00220874 -0.00583625 -0.232561 0.00125 280
1 0.223449 0.23147 0.00157127 0.0080869 -0.0082513 -0.230038 0.00125 281
1 0.0930691 0.400831 0.00122981 -0.00928795 -0.00195863 0.0108136 0.00125 282
1 0.312594 0.076224 0.00173642 -0.0141919 0.018132 0.114469 0.00125 283
1 0.269129 0.462635 0.00160999 -4.42433e-05 0.00545966 -0.182275 0.00125 284
1 0.0929345 0.250998 0.00144576 -0.00221387 0.00171082 -0.192674 0.00125 285
1 0.305826 0.0759745 0.00133377 -0.0277811 -0.00763328 -0.235209 0.00125 286
1 0.0770987 0.100405 0.00144979 -0.00500468 -0.0362868 0.186138 0.00125 287
1 0.379123 0.253599 0.00184132 -0.00163372 -0.0135774 -0.069144 0.00125 288
1 0.117155 0.316531 0.00136892 0.0137373 0.000831682 -0.237231 0.00125 289
1 0.366125 0.202029 0.00131638 0.00420536 0.0255387 0.176061 0.00125 290
1 0.345895 0.104127 0.00227854 -0.00857736 -0.0108937 -0.0484377 0.00125 291
1 0.482443 0.37513 0.00193471 0.000119493 0.00149971 -0.187805 0.00125 292
1 0.186809 0.067193 0.00126332 -0.0252128 -0.0121473 0.193439 0.00125 293
1 0.238655 0.315363 0.00123854 0.0120475 0.00381533 -0.196137 0.00125 294
1 0.519174 0.384396 0.00147202 -0.0150295 -0.0241693 0.0821599 0.00125 295
1 0.0539852 0.249015 0.00151467 0.00789336 0.0187641 0.21382 0.00125 296
1 0.256233 0.329613 0.00138967 -0.0150494 0.0123659 0.179577 0.00125 297
1 0.0328101 0.520135 0.00146595 -0.0108592 -0.0229282 -0.199116 0.00125 298
1 0.0328474 0.492988 0.00137974 0.0049581 -0.0133208 -0.203314 0.00125 299
1 0.312157 0.15086 0.00200278 0.0261344 -0.0140116 -0.0717567 0.00125 300
1 0.100415 0.0558513 0.00247416 0.000630376 -0.00509446 0.0357559 0.00125 301
1 0.50722 0.370199 0.00135719 0.00566028 0.00289512 0.190248 0.00125 302
1 0.202036 0.0255173 0.0018665 -0.00996154 -0.00190526 -0.241701 0.00125 303
1 0.175079 0.216564 0.00228519 -0.00465742 -0.00699832 -0.067611 0.00125 304
1 0.183676 0.278806 0.00127869 0.00390545 -0.00922026 0.0456734 0.00125 305
1 0.412115 0.19167 0.00180975 -0.00697555 0.00802134 -0.078746 0.00125 306
1 0.194221 0.216636 0.00153214 -0.00726491 -0.00234965 -0.265515 0.00125 307
1 0.0418076 0.140076 0.00185788 -0.0116698 -0.00582956 -0.211815 0.00125 308
1 0.320283 0.0325342 0.00137459 0.00657039 -0.000553554 -0.237221 0.00125 309
1 0.483277 0.353578 0.00189045 0.0017439 0.00559981 -0.0874473 0.00125 310
1 0.406283 0.327137 0.00235649 0.00583698 0.00366491 -0.105081 0.00125 311
1 0.310198 0.531906 0.00129522 0.0055701 0.00652968 0.203476 0.00125 312
1 0.316545 0.331477 0.00181568 0.00637238 -0.069649 -0.181938 0.00125 313
1 0.226194 0.431229 0.0014427 -0.00373347 -0.00420072 -0.238205 0.00125 314
1 0.0554127 0.0436143 0.0016564 -0.0174653 -0.0228181 0.0929785 0.00125 315
1 0.283077 0.414179 0.00130841 0.00753353 0.0262843 -0.242812 0.00125 316
1 0.424833 0.512027 0.00197688 0.0101967 0.00368897 -0.0489959 0.00125 317
1 0.497036 0.125421 0.00124746 -0.00366103 0.0069833 -0.287634 0.00125 318
1 0.259355 0.319877 0.00133751 0.00282254 -0.00170723 -0.28026 0.00125 319
1 0.0288526 0.0821799 0.0014288 -0.00578232 -0.00533183 -0.199498 0.00125 320
1 0.127839 0.160606 0.00241866 -0.0150192 0.0259842 0.0318139 0.00125 321
1 0.0868149 0.189631 0.00141555 0.0108039 0.00774149 0.241765 0.00125 322
1 0.224362 0.037698 0.00159718 -0.00427528 -0.00652685 0.0940974 0.00125 323
1 0.121673 0.49499 0.00175547 -0.0133654 -0.0125065 0.108752 0.00125 324
1 0.094189 0.102026 0.00125609 0.0184272 0.00577596 -0.231456 0.00125 325
1 0.299453 0.217449 0.00122961 -0.00435664 -0.021098 0.037371 0.00125 326
1 0.156462 0.430627 0.00124999 -0.00237777 0.00399597 0.1918 0.00125 327
1 0.513051 0.0356569 0.00122577 -0.00403314 -0.00379907 -0.0467134 0.00125 328
1 0.0410489 0.369679 0.00201951 -0.0150713 -0.016897 -0.0641067 0.00125 329
1 0.110097 0.361828 0.00189552 -0.000481381 0.0201294 -0.208655 0.00125 330
1 0.511673 0.196019 0.00127768 0.00758287 0.00389564 0.0645707 0.00125 331
1 0.261251 0.0604063 0.00146875 -0.00853044 -0.0117788 0.216314 0.00125 332
1 0.466566 0.34453 0.00159828 -0.00575942 -0.0255867 0.106178 0.00125 333
1 0.234507 0.264101 0.00140673 -0.0104584 -0.0211666 0.246887 0.00125 334
1 0.477877 0.354517 0.0012382 -0.009657 0.00128244 0.174539 0.00125 335
1 0.120479 0.109004 0.002169 0.00439426 0.00599446 -0.0177284 0.00125 336
1 0.422706 0.238261 0.00123014 0.000236424 0.000538908 0.000912772 0.00125 337
1 0.492569 0.3655 0.00156007 -0.0231936 -0.0152155 -0.16991 0.00125 338
1 0.443154 0.0811794 0.0012306 0.000607193 0.0043286 -0.0533752 0.00125 339
1 0.0386296 0.291857 0.00138884 0.0125103 -0.00286206 -0.305497 0.00125 340
1 0.3181 0.0100354 0.00193999 -0.00526151 0.0170792 -0.0813772 0.00125 341
1 0.329805 0.523549 0.00128396 -0.00712058 0.0135408 0.205075 0.00125 342
1 0.508999 0.175017 0.00137856 0.0128366 0.0284668 0.168697 0.00125 343
1 0.0466036 0.0429361 0.00129541 -0.00113096 -0.0180862 -0.232604 0.00125 344
1 0.0953181 0.093306 0.00162119 0.0156215 0.00342864 -0.0905509 0.00125 345
1 0.118754 0.52459 0.00142229 0.012957 -0.00521717 -0.238066 0.00125 346
1 0.187112 0.0763818 0.00127728 -0.0106381 -0.00256984 0.189325 0.00125 347
1 0.111017 0.0235535 0.00177767 -0.00213025 -0.00845687 -0.219277 0.00125 348
1 0.449112 0.403577 0.00125166 -0.00756105 0.0176108 -0.229798 0.00125 349
1 0.519607 0.136671 0.00124303 -0.0102416 0.00777354 0.193334 0.00125 350
1 0.345386 0.294614 0.00150516 0.00201835 -0.00416138 -0.265226 0.00125 351
1 0.355394 0.308702 0.00139049 0.00332315 -0.000509016 0.222695 0.00125 352
1 0.120773 0.311887 0.00131747 -0.00222539 -0.00775817 0.233741 0.00125 353
1 0.0638079 0.447169 0.00125528 -0.00774449 0.00957522 0.246007 0.00125 354
1 0.107956 0.512719 0.00130027 -0.000865453 0.0189167 -0.0354419 0.00125 355
1 0.191088 0.305907 0.00160978 -0.00745004 0.00212819 0.052231 0.00125 356
1 0.465144 0.421563 0.00142066 0.00272636 -0.000369462 0.111924 0.00125 357
1 0.10376 0.0551115 0.00153697 0.000588362 -0.00288291 0.0580783 0.00125 358
1 0.11403 0.487894 0.001592 -0.0103099 -0.0110187 -0.178851 0.00125 359
1 0.0376768 0.216349 0.00172478 0.0102027 -0.000455022 -0.26702 0.00125 360
1 0.254443 0.444453 0.00141977 0.00393097 -0.000768327 -0.176981 0.00125 361
1 0.532729 0.277528 0.00191123 -0.00628956 -0.00382713 -0.0748904 0.00125 362
1 0.0783943 0.0917102 0.00143012 0.0134181 -0.0122586 0.165053 0.00125 363
1 0.474565 0.348836 0.00137299 -0.00758815 0.0256757 -0.201858 0.00125 364
1 0.396384 0.112759 0.00128735 0.00732529 -0.00529046 -0.231833 0.00125 365
1 0.534299 0.0724309 0.00226288 -0.0138882 -0.000967121 -0.0487118 0.00125 366
1 0.112368 0.199243 0.00242849 -0.0159116 -0.0195979 -0.0824202 0.00125 367
1 0.0667356 0.483493 0.00170032 -0.00521252 0.00161944 -0.226617 0.00125 368
1 0.366991 0.230104 0.00124501 -0.0312988 -0.0151103 0.196823 0.00125 369
1 0.488186 0.370633 0.00146433 -0.000662314 -0.00389413 -0.228841 0.00125 370
1 0.297397 0.437929 0.00150485 -0.0228059 -0.00780552 -0.216582 0.00125 371
1 0.451713 0.506297 0.00158 0.00421943 0.0203547 -0.187336 0.00125 372
1 0.416779 0.510653 0.00131068 -0.0045119 0.00481862 -0.284621 0.00125 373
1 0.330359 0.15644 0.00135027 -0.00424265 -0.0168096 -0.234942 0.00125 374
1 0.502348 0.526769 0.00231193 -0.00809323 0.014796 -0.0452487 0.00125 375
1 0.180085 0.36675 0.00173634 0.00517896 -0.00342979 0.111453 0.00125 376
1 0.143914 0.119171 0.00151339 0.0186893 -0.0223493 0.148937 0.00125 377
1 0.143469 0.137619 0.00134003 0.0153284 -0.00113841 0.0713103 0.00125 378
1 0.207865 0.514932 0.00129176 0.00689449 0.00426004 0.178805 0.00125 379
1 0.0375264 0.320487 0.00133199 -0.0110868 0.0299482 -0.231649 0.00125 380
1 0.433216 0.181063 0.00131259 0.00640552 0.0252909 0.181719 0.00125 381
1 0.0734062 0.0950574 0.00144982 -0.00392788 -0.00779234 0.220156 0.00125 382
1 0.104238 0.0925732 0.00134846 0.0079914 -0.0270812 -0.187229 0.00125 383
1 0.472142 0.173299 0.00130685 -0.029854 -0.00331063 0.190109 0.00125 384
1 0.422049 0.118014 0.00228388 -0.00153263 -0.00696871 -0.134176 0.00125 385
1 0.114961 0.0877263 0.0022912 -0.0124604 0.00258719 -0.046928 0.00125 386
1 0.508804 0.310673 0.00140349 -0.0093214 0.000747506 -0.239745 0.00125 387
1 0.177931 0.0990107 0.00167781 -0.0088266 0.00089137 0.0615674 0.00125 388
1 0.10347 0.329538 0.00133315 -0.0121416 -0.0152104 -0.23945 0.00125 389
1 0.445586 0.499695 0.00226346 0.00430564 0.00779397 -0.168279 0.00125 390
1 0.463465 0.101136 0.00135173 0.0295956 -0.0124366 -0.224036 0.00125 391
1 0.0291753 0.386296 0.00250613 -0.0225556 -0.000125553 -0.0161876 0.00125 392
1 0.105122 0.196996 0.00139313 -0.000934818 0.00350916 0.22152 0.00125 393
1 0.130844 0.345352 0.00166543 1.98914e-05 -0.0133236 -0.0891783 0.00125 394
1 0.0451548 0.0365052 0.00163952 -0.00105098 0.00520552 -0.175354 0.00125 395
1 0.0832151 0.283245 0.00193585 0.0127241 -0.00588043 -0.202026 0.00125 396