ITEM: TIMESTEP
1000000
ITEM: NUMBER OF ATOMS
10000
ITEM: BOX BOUNDS pp pp ff
0.0000000000000000e+00 3.4690752000000002e-01
0.0000000000000000e+00 3.4690752000000002e-01
-1.2500000000000001e-02 1.2500000000000001e-02
ITEM: ATOMS type x y z vx vy vz radius id
1 0.185135 0.149044 0.00135784 -0.00363757 0.00246053 0.149291 0.00125 1
1 0.0745078 0.218531 0.00125393 0.0121671 0.00842954 -0.217293 0.00125 2
1 0.0403271 0.269875 0.00137942 -0.00504157 -0.000593143 -0.30509 0.00125 3
1 0.116668 0.142807 0.00128553 -0.00326586 0.00438768 -0.233416 0.00125 4
1 0.225225 0.332944 0.00134421 0.0269155 0.0144944 -0.302892 0.00125 5
1 0.150739 0.0957131 0.00234492 0.000193055 0.0698509 0.00282088 0.00125 6
1 0.121468 0.17411 0.00151854 0.0221542 -0.00639053 -0.230504 0.00125 7
1 0.035156 0.192134 0.00168437 0.0167405 0.016897 -0.215549 0.00125 8
1 0.346741 0.117977 0.00156964 -0.01025 -0.016379 0.052354 0.00125 9
1 0.0782516 0.119741 0.00205173 -0.0438173 0.0411709 0.000147899 0.00125 10
1 0.277283 0.279551 0.00134099 0.0533205 -0.0256014 -0.210981 0.00125 11
1 0.234607 0.129521 0.00129768 -0.0362745 -0.0281962 0.181762 0.00125 12
1 0.157342 0.216193 0.00136768 0.0377159 0.0145845 -0.0516109 0.00125 13
1 0.0848506 0.195479 0.00130981 -0.0313897 0.0551545 0.155956 0.00125 14
1 0.251623 0.130495 0.00131222 -0.0493145 -0.0255098 0.182118 0.00125 15
1 0.272998 0.320896 0.00151996 -0.0456704 0.0211798 0.216424 0.00125 16
1 0.309593 0.011879 0.00155084 0.00126839 0.036165 -0.205786 0.00125 17
1 0.111585 0.0898988 0.00145469 -0.0528327 0.00532683 0.124506 0.00125 18
1 0.128139 0.049946 0.00157352 0.0316471 0.0223628 -0.234597 0.00125 19
1 0.1991 0.0240764 0.00145927 -0.00776926 0.00668157 -0.240261 0.00125 20
1 0.224995 0.252931 0.00152929 0.0228166 -0.00450133 -0.237095 0.00125 21
1 0.0885065 0.220846 0.0013347 0.00639932 -0.0146549 0.0367479 0.00125 22
1 0.124606 0.18539 0.00155847 -0.0628517 -0.0401292 -0.119254 0.00125 23
1 0.121642 0.264513 0.00196505 0.0335307 0.0881053 -0.0124704 0.00125 24
1 0.0795025 0.0785393 0.0012943 0.0463491 -0.0440833 0.248889 0.00125 25
1 0.325099 0.0728453 0.00147185 -0.0648511 0.0314748 0.108986 0.00125 26
1 0.253817 0.0273351 0.00132555 -0.0124108 -0.0262712 0.199315 0.00125 27
1 0.166788 0.194086 0.00157725 -0.0148221 0.00483906 -0.274673 0.00125 28
1 0.18576 0.0811202 0.00210594 0.00700051 -0.0592993 -0.000212708 0.00125 29
1 0.185574 0.169815 0.00144105 -0.00627202 -0.0105495 -0.23449 0.00125 30
1 0.0604218 0.274041 0.00191341 0.0364552 -0.00562414 -0.23651 0.00125 31
1 0.261896 0.211733 0.0022385 -0.00754961 -0.0420649 -0.0694365 0.00125 32
1 0.270263 0.270049 0.00166889 0.00963416 0.00575423 -0.241054 0.00125 33
1 0.0631439 0.339105 0.00168985 0.0220668 0.0444018 0.105082 0.00125 34
1 0.0468625 0.269431 0.0016646 -0.0104237 -0.00179679 0.0940242 0.00125 35
1 0.175375 0.16158 0.00122694 -0.0358855 -0.00425936 -0.133145 0.00125 36
1 0.194314 0.321921 0.00251452 0.0148839 0.0254231 -0.0367899 0.00125 37
1 0.158917 0.0521715 0.00216394 0.000430533 -0.0323141 -0.113702 0.00125 38
1 0.172749 0.0601148 0.001897 -0.0125885 0.0233073 -0.194074 0.00125 39
1 0.212294 0.259087 0.00151443 0.00996879 0.0541589 -0.289982 0.00125 40
1 0.104125 0.0547176 0.00131272 -0.0240234 -0.00837508 0.16447 0.00125 41
1 0.16808 0.116351 0.00160953 0.000159965 0.0261893 0.119732 0.00125 42
1 0.281904 0.264165 0.00135823 -0.0193545 0.0210984 0.193911 0.00125 43
1 0.117554 0.21457 0.0016549 -0.00878409 -0.0204811 -0.223326 0.00125 44
1 0.17016 0.291323 0.00156104 0.0365345 0.0349104 -0.252826 0.00125 45
1 0.166333 0.233126 0.00131981 -0.0153725 -0.00989263 -0.246289 0.00125 46
1 0.190742 0.31077 0.00136562 -0.0107095 -0.0135731 0.219732 0.00125 47
1 0.228902 0.00124184 0.00149479 0.0057921 -0.0228955 -0.0911731 0.00125 48
1 0.26283 0.150821 0.00124559 0.000124352 -0.00603968 0.17393 0.00125 49
1 0.289927 0.240982 0.00164307 0.040577 -0.000440209 -0.214719 0.00125 50
1 0.0179438 0.263713 0.00138161 0.0242442 0.00733931 -0.231401 0.00125 51
1 0.221538 0.324349 0.00158682 -0.0102782 0.0247969 0.0952367 0.00125 52
1 0.324422 0.182008 0.00123478 -0.00150528 0.000276656 -0.189175 0.00125 53
1 0.257332 0.290876 0.00149059 0.0114347 -0.0356927 -0.101773 0.00125 54
1 0.244882 0.0732202 0.00144826 -0.022296 -0.0054471 0.252348 0.00125 55
1 0.231184 0.0263205 0.00188211 -0.0282407 0.0239287 -0.146527 0.00125 56
1 0.260788 0.00619396 0.00129725 -0.00893086 -0.00126785 -0.232094 0.00125 57
1 0.25735 0.166866 0.00140302 0.000356131 0.00955441 0.172488 0.00125 58
1 0.295394 0.199837 0.00139904 -0.00511384 -0.0133652 0.227875 0.00125 59
1 0.038655 0.159885 0.00166135 -0.0104947 -0.0370844 -0.0621968 0.00125 60
1 0.190745 0.133334 0.0014515 -0.0181302 -0.00346844 0.214156 0.00125 61
1 0.121256 0.143597 0.00213136 -0.00451837 0.0177814 -0.0718661 0.00125 62
1 0.169271 0.0882507 0.00123272 0.00415147 0.00466083 -0.255804 0.00125 63
1 0.116638 0.250759 0.00180024 0.0115669 0.0202391 -0.202304 0.00125 64
1 0.0685174 0.146857 0.00212445 -0.0286023 0.00032354 -0.0849016 0.00125 65
1 0.241578 0.107684 0.00189054 0.00953885 0.0264268 -0.0726719 0.00125 66
1 0.0308825 0.0123741 0.00142536 -0.0211609 -0.0033934 0.0995126 0.00125 67
1 0.315899 0.201397 0.00157522 0.00868165 0.00899915 -0.228244 0.00125 68
1 0.0900947 0.12813 0.00132252 0.00946853 -0.00146331 -0.230853 0.00125 69
1 0.21695 0.101718 0.00134426 0.0504806 0.0371133 -0.23957 0.00125 70
1 0.259792 0.270934 0.00164776 -0.0623174 0.000467772 0.113021 0.00125 71
1 0.0688839 0.290566 0.0022594 0.00558824 0.0267658 -0.0370878 0.00125 72
1 0.182132 0.311916 0.00126342 -0.000244367 0.0489247 0.0148378 0.00125 73
1 0.251535 0.171828 0.00150059 0.0280527 0.0536946 -0.173724 0.00125 74
1 0.266555 0.104399 0.00163786 -0.0106927 -0.00760619 -0.121508 0.00125 75
1 0.168287 0.0847548 0.00128002 0.00441217 0.00843315 0.266248 0.00125 76
1 0.256806 0.254732 0.00239624 0.06846 0.0322323 -0.0377901 0.00125 77
1 0.0404736 0.0844842 0.00214811 0.00693876 0.00400029 -0.172917 0.00125 78
1 0.0632393 0.20209 0.00144724 0.0938838 -0.0374119 -0.176715 0.00125 79
1 0.336891 0.0864268 0.00180558 -0.0709718 -0.0778371 -0.066377 0.00125 80
1 0.336651 0.333793 0.00131224 -0.0155537 -0.00542704 0.237068 0.00125 81
1 0.205708 0.119594 0.00157675 -0.033678 0.00601972 0.0567017 0.00125 82
1 0.336123 0.257194 0.0014971 -0.00581888 -0.0224051 -0.191561 0.00125 83
1 0.120177 0.171293 0.00143939 -0.0131284 0.015881 -0.242359 0.00125 84
1 0.318537 0.229293 0.00149742 0.0047146 0.0273758 0.111214 0.00125 85
1 0.295107 0.0148024 0.00133985 -0.00178857 0.00256431 -0.231935 0.00125 86
1 0.158945 0.140604 0.00137491 -0.0329583 0.0107005 0.226607 0.00125 87
1 0.0131261 0.232148 0.00135456 0.00814004 0.0297759 -0.234355 0.00125 88
1 0.0271672 0.00258322 0.00153527 0.0088884 0.0129217 -0.125683 0.00125 89
1 0.1152 0.332317 0.0015836 -0.00593963 0.00641898 -0.198254 0.00125 90
1 0.0750131 0.198317 0.00158795 -0.00712682 0.00179731 0.0560654 0.00125 91
1 0.136075 0.225741 0.00147772 -0.00958302 0.025803 -0.237154 0.00125 92
1 0.329136 0.0812385 0.00162029 -0.0059933 0.012214 -0.230848 0.00125 93
1 0.33313 0.34666 0.00126366 0.0119883 -0.0211118 0.221481 0.00125 94
1 0.243027 0.337079 0.00123999 -0.0141204 -0.0199036 0.190924 0.00125 95
1 0.233378 0.121949 0.0021347 0.0117672 -0.0166438 -0.0569006 0.00125 96
1 0.245581 0.223299 0.00160677 0.0800396 0.0469792 -0.189144 0.00125 97
1 0.0772504 0.065281 0.00139955 0.0158392 0.00525042 0.175086 0.00125 98
1 0.328934 0.312011 0.00164192 0.0159644 0.0436339 -0.248509 0.00125 99
1 0.275608 0.316911 0.00200081 -0.000392867 -0.0121827 -0.0911522 0.00125 100
1 0.132083 0.0131525 0.00229649 -0.00626025 0.00863946 -0.140826 0.00125 101
1 0.0164179 0.150604 0.00170469 0.0203686 0.0324512 -0.268193 0.00125 102
1 0.256909 0.0895167 0.00170648 0.00439661 -0.0553923 -0.0492683 0.00125 103
1 0.340843 0.339453 0.0012302 0.000382504 0.0104398 -0.0316123 0.00125 104
1 0.096108 0.241737 0.00225303 -0.0152315 -0.0465037 -0.142565 0.00125 105
1 0.2276 0.205016 0.00165051 0.00621935 -0.00533606 0.168072 0.00125 106
1 0.031851 0.0504782 0.00126995 0.00709614 0.00733569 -0.231089 0.00125 107
1 0.00415223 0.0456213 0.00124631 -0.0277667 -0.0184667 -0.0203349 0.00125 108
1 0.318294 0.181895 0.0019815 0.000250407 0.016559 -0.0658127 0.00125 109
1 0.168199 0.298162 0.00161876 0.0137017 0.00517395 0.174176 0.00125 110
1 0.30966 0.0931385 0.00131933 0.0321235 0.00458832 0.230368 0.00125 111
1 0.0897985 0.0947733 0.00124231 0.00801037 0.0151465 -0.0853419 0.00125 112
1 0.258468 0.228029 0.00127773 0.00908933 -0.00752713 0.248587 0.00125 113
1 0.240733 0.115914 0.00124223 -0.0173207 -0.00446732 0.187427 0.00125 114
1 0.329232 0.123037 0.00162274 0.032538 -0.0192775 0.0949269 0.00125 115
1 0.18222 0.309688 0.00249467 0.00117804 -0.0478844 0.0128574 0.00125 116
1 0.136253 0.211129 0.00137211 0.00881443 0.0196134 0.214702 0.00125 117
1 0.157421 0.0927943 0.00175577 0.00671973 0.00617093 0.164829 0.00125 118
1 0.0885291 0.0886141 0.00162601 0.00827237 0.0145205 0.0897724 0.00125 119
1 0.24015 0.21019 0.00132204 0.0248115 -0.0073455 0.19883 0.00125 120
1 0.159239 0.277497 0.00133063 -0.0424403 0.0289554 0.0275135 0.00125 121
1 0.330934 0.101529 0.001451 -0.00296466 0.00986729 -0.0720445 0.00125 122
1 0.340483 0.0599307 0.00227663 0.00267807 0.00770521 -0.0485838 0.00125 123
1 0.0230117 0.206025 0.00158282 -0.00894433 -0.00191738 -0.0924293 0.00125 124
1 0.106449 0.0443058 0.00125707 -0.00916965 0.00243355 0.190392 0.00125 125
1 0.212926 0.013737 0.00240098 0.0106593 -0.0240342 -0.0966887 0.00125 126
1 0.0762547 0.292369 0.00126061 0.0250866 -0.00476339 -0.224087 0.00125 127
1 0.195862 0.0102892 0.001312 -0.0156214 0.0055196 0.238186 0.00125 128
1 0.0297356 0.34476 0.00137368 -0.02919 -0.0394082 0.211623 0.00125 129
1 0.16656 0.109951 0.00169044 -0.00743672 -0.0473204 0.150412 0.00125 130
1 0.121702 0.122184 0.00159556 -0.0939787 -0.0094223 -0.0439961 0.00125 131
1 0.276052 0.26708 0.00144352 0.0811625 0.0154044 0.00079909 0.00125 132
1 0.0455798 0.193102 0.0019733 -0.0270768 -0.0166072 -0.0594682 0.00125 133
1 0.0839416 0.279701 0.00149811 0.0162305 -0.0252024 0.138062 0.00125 134
1 0.158795 0.0331578 0.00165938 0.056896 -0.0463014 0.106719 0.00125 135
1 0.282125 0.0222709 0.00162331 -0.000495614 0.0279674 0.0621438 0.00125 136
1 0.252972 0.240518 0.00160713 -0.0567424 0.0662518 -0.172395 0.00125 137
1 0.168239 0.252837 0.00214533 -0.00878604 -0.0174455 -0.0208624 0.00125 138
1 0.183049 0.33602 0.00139202 0.0130375 -0.0209011 -0.227779 0.00125 139
1 0.243918 0.133993 0.00195927 0.053953 -0.0453267 -0.203024 0.00125 140
1 0.344922 0.190734 0.00158789 0.00587052 0.023543 0.211374 0.00125 141
1 0.0679613 0.0863674 0.00185039 -0.00267282 -0.0229056 -0.2123 0.00125 142
1 0.228296 0.238033 0.0014409 0.0225444 -0.0106628 0.105313 0.00125 143
1 0.295066 0.0408656 0.00182994 0.00278855 -0.0541181 -0.185825 0.00125 144
1 0.034342 0.134941 0.00124263 -0.0153351 -0.0164584 -0.191923 0.00125 145
1 0.293967 0.223829 0.00222746 0.0682655 -0.0930879 -0.0519078 0.00125 146
1 0.230797 0.240485 0.00123779 -0.0173049 -0.0135451 -0.197322 0.00125 147
1 0.276647 0.0793952 0.00243234 -0.031501 -0.0245996 -0.0423817 0.00125 148
1 0.283595 0.121831 0.00172108 0.0502547 -0.0201012 -0.249395 0.00125 149
1 0.208183 0.187921 0.00200199 -0.0266396 -0.00309058 -0.184118 0.00125 150
1 0.328391 0.161768 0.00219761 0.00147638 -0.0120475 -0.0641985 0.00125 151
1 0.0814003 0.270629 0.00128274 -0.00134227 -0.0463544 -0.314374 0.00125 152
1 0.256327 0.332764 0.00153228 0.0253843 -0.0241051 0.135204 0.00125 153
1 0.0549326 0.335057 0.00193367 -0.0495942 0.0569785 -0.0717041 0.00125 154
1 0.337769 0.298432 0.00131506 0.00530759 0.00572423 -0.251372 0.00125 155
1 0.0714053 0.092824 0.00210274 -0.0321108 -0.0130239 -0.0697265 0.00125 156
1 0.320782 0.299396 0.00224 0.012002 -0.0421799 -0.0793744 0.00125 157
1 0.132778 0.262441 0.00188379 -0.0248173 -0.00243153 -0.202284 0.00125 158
1 0.15787 0.14983 0.00142969 0.00900232 0.0154605 -0.18559 0.00125 159
1 0.192725 0.118469 0.0016409 -0.0114879 -0.00299439 0.132655 0.00125 160
1 0.153039 0.0597906 0.00141649 -0.0588975 -0.0358665 0.168064 0.00125 161
1 0.234818 0.201266 0.00149639 0.0107985 0.00992911 -0.241403 0.00125 162
1 0.189501 0.0714061 0.00168504 0.0310462 0.00124022 0.0598179 0.00125 163
1 0.336506 0.00209018 0.00128815 0.0184237 0.00788428 0.19012 0.00125 164
1 0.0210144 0.169337 0.00150596 0.0322188 -0.00887669 0.0971146 0.00125 165
1 0.247888 0.139534 0.00196257 0.0299216 0.0146845 -0.234154 0.00125 166
1 0.225852 0.0413871 0.00145081 -0.00872304 -0.0180357 0.198873 0.00125 167
1 0.270012 0.202903 0.00156224 -0.00744516 -0.00239857 0.223038 0.00125 168
1 0.126155 0.220398 0.0013374 -0.0462694 -0.098032 -0.0045832 0.00125 169
1 0.285079 0.1471 0.00162485 0.0713521 -0.0531392 -0.192824 0.00125 170
1 0.0511643 0.179943 0.00122488 -0.0079265 0.0157134 0.0652453 0.00125 171
1 0.312948 0.0783168 0.00128586 -0.0310547 0.000652392 -0.215394 0.00125 172
1 0.29526 0.263471 0.00134702 0.00439668 -0.0140427 -0.304394 0.00125 173
1 0.137857 0.144258 0.00177477 0.0119451 -0.0195669 -0.217024 0.00125 174
1 0.0685292 0.0476464 0.00132205 -0.0005523 -0.0191555 -0.217161 0.00125 175
1 0.0460507 0.205001 0.00192409 -0.0224138 0.0189403 -0.147047 0.00125 176
1 0.0237004 0.161372 0.00198109 0.0296523 0.0261366 -0.0228624 0.00125 177
1 0.185892 0.163576 0.00136615 0.0117133 0.0225194 0.157196 0.00125 178
1 0.0864383 0.30497 0.00164462 -0.0179304 0.016425 -0.250584 0.00125 179
1 0.138381 0.0967667 0.00155806 0.021205 0.00971534 -0.228677 0.00125 180
1 0.102897 0.258384 0.001391 -0.0161924 -0.0189925 0.152988 0.00125 181
1 0.0154832 0.267209 0.00171758 -0.0178292 -0.0284382 0.107535 0.00125 182
1 0.315681 0.210716 0.00183719 -0.0108111 -0.0289538 -0.209464 0.00125 183
1 0.0794275 0.205434 0.0016502 -0.0089252 -0.0121615 0.0909878 0.00125 184
1 0.239251 0.207455 0.00207993 0.0152051 0.0215555 -0.0497276 0.00125 185
1 0.182099 0.11565 0.00186898 0.0267516 4.15875e-05 -0.0754831 0.00125 186
1 0.219303 0.0691953 0.00138988 0.0185357 -0.0729586 -0.189901 0.00125 187
1 0.0955852 0.0346742 0.00185318 0.0060832 -0.000517694 -0.0297309 0.00125 188
1 0.0879354 0.34687 0.00135953 0.00201202 0.03296 -0.230192 0.00125 189
1 0.150795 0.0570915 0.00139606 -0.0258101 0.00992582 -0.264358 0.00125 190
1 0.239786 0.238207 0.00128754 -0.0166341 0.00902491 0.235848 0.00125 191
1 0.0381043 0.1863 0.00161578 0.0150899 -0.0184506 0.0992492 0.00125 192
1 0.0197715 0.117449 0.00176523 0.00920158 0.00968934 -0.202584 0.00125 193
1 0.0961226 0.295199 0.00128484 -0.00678002 -0.00131565 0.198558 0.00125 194
1 0.116148 0.187718 0.00139487 0.0320805 0.00652995 -0.186498 0.00125 195
1 0.226469 0.324092 0.0023125 -0.0912203 0.0244675 -0.0704035 0.00125 196
1 0.097763 0.125253 0.00178536 0.00316908 0.0154422 -0.165555 0.00125 197
1 0.288018 0.256543 0.00244486 0.00426405 5.42055e-05 -0.0972019 0.00125 198
1 0.229883 0.265875 0.00140174 -0.0136229 -0.000512516 -0.227431 0.00125 199
1 0.329798 0.300934 0.0024436 0.00770857 -0.0169614 -0.0349995 0.00125 200
1 0.113761 0.266819 0.00197402 0.0121397 0.0229922 -0.192079 0.00125 201
1 0.0920295 0.126345 0.00173757 0.00978142 -0.00533939 0.107387 0.00125 202
1 0.145198 0.234293 0.00209831 0.0375396 -0.000551612 -0.178318 0.00125 203
1 0.294713 0.157355 0.00178977 0.0278407 0.0191083 -0.0916693 0.00125 204
1 0.208358 0.192381 0.00127505 -0.00208489 -0.014228 0.189053 0.00125 205
1 0.330511 0.129901 0.00126448 0.0174466 0.010325 -0.23087 0.00125 206
1 0.194209 0.317332 0.00184076 -0.0653313 0.0386657 -0.0745143 0.00125 207
1 0.226617 0.0962841 0.00221521 -0.0158211 0.0348336 -0.0534582 0.00125 208
1 0.135011 0.172546 0.00201351 -0.0157536 0.0255312 -0.0671126 0.00125 209
1 0.127737 0.157342 0.00150469 -0.012389 0.000849218 -0.23947 0.00125 210
1 0.0727479 0.104774 0.00123145 0.0238606 0.000705917 -0.0550236 0.00125 211
1 0.200865 0.322808 0.00158677 -0.00353292 0.0157527 -0.227032 0.00125 212
1 0.0640244 0.134978 0.00147107 -0.0315963 0.0156174 -0.18797 0.00125 213
1 0.236386 0.174351 0.00138173 0.0621433 -0.0280699 -0.0620598 0.00125 214
1 0.031751 0.161153 0.00152243 0.0273386 0.0138957 0.0997762 0.00125 215
1 0.0739949 0.0435536 0.00134068 -0.034248 -0.00719917 0.229812 0.00125 216
1 0.346439 0.308919 0.00142281 0.0151024 -0.00514063 -0.243992 0.00125 217
1 0.230986 0.244634 0.00239684 0.00610847 -0.0110944 -0.0927593 0.00125 218
1 0.126534 0.0239888 0.00177597 -0.00348093 0.00624355 -0.174435 0.00125 219
1 0.118096 0.0868894 0.00133836 -0.00199298 0.000540072 0.202431 0.00125 220
1 0.332379 0.116318 0.00240931 0.00945248 -0.00859452 -0.0409556 0.00125 221
1 0.0107483 0.0659101 0.0021145 -0.0119385 0.000411227 -0.0575637 0.00125 222
1 0.0661871 0.148057 0.00141191 0.0110853 -0.000484643 -0.294299 0.00125 223
1 0.274114 0.103514 0.0012782 0.0454838 0.0118182 0.197943 0.00125 224
1 0.0967016 0.27582 0.00154389 -0.0339796 -0.00497601 -0.238176 0.00125 225
1 0.244139 0.329415 0.00227364 -0.00357009 -0.0152616 -0.152931 0.00125 226
1 0.148374 0.0679625 0.00130183 -0.0240857 -0.0236447 -0.231643 0.00125 227
1 0.298953 0.111346 0.00187795 0.070353 0.0377948 -0.042898 0.00125 228
1 0.314374 0.102807 0.00167325 0.00421643 0.0286154 -0.249429 0.00125 229
1 0.202802 0.268232 0.00225061 0.00832014 0.0186377 -0.0141365 0.00125 230
1 0.23291 0.176306 0.0019539 -0.027149 0.0413981 -0.0709432 0.00125 231
1 0.124007 0.345032 0.00172434 -0.0103174 -0.0105671 0.184685 0.00125 232
1 0.12231 0.274783 0.00126699 0.00415936 -0.0100268 -0.27345 0.00125 233
1 0.0141655 0.121581 0.00156744 0.0248163 -0.0125693 -0.188668 0.00125 234
1 0.2777 0.155728 0.00186226 -0.0405119 -0.0443086 -0.176135 0.00125 235
1 0.123725 0.136873 0.00160845 -0.0136768 0.0119573 -0.232337 0.00125 236
1 0.256623 0.151834 0.00123783 -0.00656722 -0.0172753 0.0875815 0.00125 237
1 0.340243 0.267293 0.00136344 -0.0466758 0.013538 0.244612 0.00125 238
1 0.151568 0.298596 0.00154084 0.0103329 -0.00888545 0.0602091 0.00125 239
1 0.280483 0.1354 0.00221332 0.000143685 -0.00388442 -0.150329 0.00125 240
1 0.247506 0.115319 0.00161451 0.0696135 0.0341672 -0.196318 0.00125 241
1 0.00394081 0.20395 0.00173822 0.0347178 0.050262 -0.212629 0.00125 242
1 0.283578 0.0108559 0.00210691 0.0127789 -0.046737 -0.0586202 0.00125 243
1 0.340936 0.260984 0.00123297 0.00650839 -0.00596351 -0.134575 0.00125 244
1 0.135113 0.299399 0.00141818 -0.0189202 -9.21093e-05 -0.243965 0.00125 245
1 0.0995148 0.309849 0.001572 0.00462285 -0.0539952 0.160063 0.00125 246
1 0.136913 0.178536 0.00148396 -0.0164252 0.0062079 0.204952 0.00125 247
1 0.057384 0.306707 0.00147907 0.0190625 -0.0104844 0.135665 0.00125 248
1 0.108634 0.230229 0.00124692 -0.054599 0.000392434 -0.235441 0.00125 249
1 0.0912669 0.232913 0.00149951 -0.0156421 -0.0146517 -0.270563 0.00125 250
1 0.269477 0.0246487 0.00155355 0.0106821 -0.0266849 -0.175331 0.00125 251
1 0.342638 0.213031 0.00136825 -0.0129859 0.021314 0.162633 0.00125 252
1 0.326598 0.188293 0.0012519 0.0109695 0.018183 -0.0362766 0.00125 253
1 0.0892534 0.262661 0.00186231 0.0108224 0.0259327 -0.0700751 0.00125 254
1 0.220789 0.00497534 0.00198075 0.0123819 0.0128725 -0.134895 0.00125 255
1 0.327803 0.0663661 0.00223052 -0.0208889 -0.0434758 -0.0759151 0.00125 256
1 0.212412 0.235445 0.00131887 -0.00011704 0.0361323 0.253435 0.00125 257
1 0.132995 0.343636 0.00135754 -0.023987 0.0107338 0.165084 0.00125 258
1 0.320274 0.0823443 0.00144876 0.0170768 0.00247269 0.152875 0.00125 259
1 0.229225 0.0803249 0.00200158 0.0138614 0.020971 -0.190552 0.00125 260
1 0.0751179 0.167027 0.00206329 -0.0454069 0.0336909 -0.155719 0.00125 261
1 0.266183 0.160179 0.00139997 0.0064574 -0.019488 0.137954 0.00125 262
1 0.13694 0.207881 0.0014544 0.0128265 -0.0219524 0.227871 0.00125 263
1 0.206598 0.0075852 0.00139712 0.0271425 -0.00614882 0.150548 0.00125 264
1 0.228483 0.33039 0.00192173 -0.0268475 0.0062851 -0.234924 0.00125 265
1 0.084716 0.242892 0.00129834 -0.00707133 0.000535629 0.209499 0.00125 266
1 0.168154 0.0319454 0.00238978 -0.0295083 0.0146501 -0.0555416 0.00125 267
1 0.0647932 0.0916315 0.00140076 -0.0133074 0.00602147 0.16884 0.00125 268
1 0.15206 0.342572 0.00136508 0.0108865 -0.0238573 0.234621 0.00125 269
1 0.28932 0.106167 0.00152307 0.00670691 0.00292484 -0.205127 0.00125 270
1 0.200857 0.123611 0.0012348 0.0225605 0.0104295 -0.118348 0.00125 271
1 0.211891 0.0973807 0.00160353 0.0199874 -0.00368388 0.140159 0.00125 272
1 0.00410297 0.171665 0.00153025 -0.0193415 -0.00597978 0.0533616 0.00125 273
1 0.311725 0.140046 0.00141371 -0.0156451 0.061768 0.143461 0.00125 274
1 0.113841 0.242181 0.00195291 0.00141548 -0.032527 -0.0647684 0.00125 275
1 0.0321236 0.335881 0.001266 0.0245709 0.0114071 0.196867 0.00125 276
1 0.250706 0.328614 0.00137764 -0.0341246 0.00753798 0.224911 0.00125 277
1 0.0409402 0.0138935 0.00234518 0.00113312 -0.00365969 -0.0512937 0.00125 278
1 0.218372 0.00375174 0.00224224 -0.00632659 -0.0208597 -0.0567681 0.00125 279
1 0.207286 0.0829259 0.00146802 0.0325241 -0.0242683 0.135343 0.00125 280
1 0.314483 0.140896 0.00205859 -0.00626276 0.017457 -0.177096 0.00125 281
1 0.262019 0.189505 0.00163116 0.026449 -0.0334462 0.14367 0.00125 282
1 0.215236 0.0730841 0.00180681 -0.0350259 0.0605557 -0.177438 0.00125 283
1 0.0828644 0.282106 0.00152505 0.0140933 0.0213159 -0.25095 0.00125 284
1 0.127349 0.328755 0.00158527 -0.0441703 -0.000200164 0.22606 0.00125 285
1 0.124438 0.192028 0.00147047 -0.0122968 -0.00684659 -0.238849 0.00125 286
1 0.304911 0.143605 0.00139714 0.00444677 -0.0074997 0.179627 0.00125 287
1 0.336759 0.287014 0.00163196 0.00855024 0.00831027 0.0576868 0.00125 288
1 0.234566 0.238339 0.00192646 0.0573598 0.00482785 -0.0418506 0.00125 289
1 0.0859693 0.187596 0.00175523 0.0222018 -0.072347 -0.181823 0.00125 290
1 0.344737 0.000805868 0.00207601 0.0274018 0.0028447 -0.0704458 0.00125 291
1 0.25453 0.147652 0.00171343 -0.016519 0.014509 -0.171299 0.00125 292
1 0.248321 0.0285465 0.00141041 -0.0235164 -0.00570962 0.178003 0.00125 293
1 0.307039 0.249088 0.0020904 -0.00566718 0.0669396 -0.0508076 0.00125 294
1 0.0757662 0.104679 0.00134005 0.00112297 0.028113 0.135488 0.00125 295
1 0.233846 0.0250109 0.00160325 0.0253918 -0.00334958 -0.102931 0.00125 296
1 0.0762122 0.0840811 0.00129106 -0.0069361 -0.0379795 0.203916 0.00125 297
1 0.0419991 0.191529 0.00242468 -0.0476244 0.0506678 0.00475992 0.00125 298
1 0.0937067 0.16416 0.0013834 -0.0111317 -0.0132691 -0.238435 0.00125 299
1 0.082581 0.206395 0.00127394 0.0157428 0.0128055 0.216465 0.00125 300
1 0.317118 0.243198 0.00151834 -0.0227838 -0.0190812 -0.10964 0.00125 301
1 0.300942 0.00414498 0.00177467 -0.0389894 -0.0251997 0.133666 0.00125 302
1 0.105065 0.163435 0.00159727 0.00168549 -0.00922378 0.0918004 0.00125 303
1 0.160797 0.0942324 0.00171976 0.0360244 0.0339976 -0.148381 0.00125 304
1 0.113734 0.111965 0.00157941 0.0282991 0.00121096 0.0936524 0.00125 305
1 0.272989 0.202633 0.00142453 0.000382605 0.0265573 0.17889 0.00125 306
1 0.137917 0.0629378 0.00145137 0.0092307 0.0423495 -0.190951 0.00125 307
1 0.297747 0.295097 0.00139293 -0.0377721 0.0145808 0.230879 0.00125 308
1 0.177328 0.216383 0.00125053 -0.00854533 0.0115959 -0.240579 0.00125 309
1 0.0953117 0.126556 0.00205228 0.000831832 0.00198381 -0.0229758 0.00125 310
1 0.111701 0.165981 0.00231919 0.01008 -0.00306437 -0.0635507 0.00125 311
1 0.206571 0.10118 0.00146163 0.00737962 0.00773795 0.153667 0.00125 312
1 0.164061 0.240746 0.00199534 -0.00748173 0.00314991 -0.0659353 0.00125 313
1 0.153962 0.224992 0.00211008 -0.0102945 -0.00324915 -0.00111148 0.00125 314
1 0.316938 0.314058 0.00155431 0.0105289 0.0137646 0.103365 0.00125 315
1 0.0739923 0.00828851 0.00142429 -0.0141059 0.0242877 -0.230913 0.00125 316
1 0.282295 0.131006 0.0013881 -0.0472186 0.0230039 -0.280535 0.00125 317
1 0.0168812 0.0628439 0.00140806 0.0263376 -0.00403916 -0.230752 0.00125 318
1 0.000907561 0.0509821 0.0014891 0.0293204 -0.00431761 0.135108 0.00125 319
1 0.0283022 0.254278 0.00235374 0.00245944 -0.00388384 -0.0440939 0.00125 320
1 0.0218199 0.159789 0.00140888 -0.0762334 -0.0609772 0.0882592 0.00125 321
1 0.257195 0.119648 0.00240805 0.00366385 0.00814561 0.0311296 0.00125 322
1 0.213985 0.257229 0.00143726 -0.0476457 0.0123541 -0.119549 0.00125 323
1 0.291428 0.274849 0.00126921 0.0228506 0.00251364 -0.235529 0.00125 324
1 0.261425 0.146612 0.00190028 0.0179643 0.00938801 -0.196585 0.00125 325
1 0.165524 0.0950026 0.00143485 0.0412253 -0.035857 0.107061 0.00125 326
1 0.120521 0.050172 0.00210978 -0.00190815 0.00873442 -0.171646 0.00125 327
1 0.315156 0.294358 0.00153238 0.0212632 -2.5565e-05 -0.238816 0.00125 328
1 0.150179 0.0511047 0.00124831 0.0160514 -0.00971921 0.19864 0.00125 329
1 0.236322 0.19535 0.001495 -0.00315175 0.0125181 0.151648 0.00125 330
1 0.249606 0.247161 0.00239942 -0.000373 0.015671 -0.0494529 0.00125 331
1 0.260357 0.29863 0.00129479 -0.0130223 -0.014048 0.20708 0.00125 332
1 0.325166 0.201687 0.00128112 -0.0263538 -0.0397955 0.18632 0.00125 333
1 0.0181621 0.0148619 0.00137406 -0.0205136 0.0248051 0.167933 0.00125 334
1 0.144412 0.0306635 0.00140227 0.00921958 0.00105731 -0.23899 0.00125 335
1 0.0101396 0.330663 0.00225862 -0.0328149 -0.0624215 -0.0423012 0.00125 336
1 0.223998 0.157774 0.00123321 0.00270319 -0.0153226 -0.0708099 0.00125 337
1 0.200772 0.0388406 0.00190831 -0.0289623 -0.017303 -0.206132 0.00125 338
1 0.318912 0.064779 0.00165438 0.00767154 -0.00320436 -0.0593056 0.00125 339
1 0.148538 0.0197602 0.00141317 0.0175613 0.0109383 -0.277604 0.00125 340
1 0.308532 0.114853 0.00151638 0.0729904 -0.105759 0.0415565 0.00125 341
1 0.223442 0.134715 0.00166612 -0.0108978 0.0201628 -0.277425 0.00125 342
1 0.207481 0.128139 0.00134484 -0.000517461 0.00608317 0.168818 0.00125 343
1 0.219322 0.122345 0.00123145 0.00557045 -0.00497457 -0.107884 0.00125 344
1 0.167958 0.0402122 0.00235182 0.0188388 0.00591526 -0.111765 0.00125 345
1 0.016695 0.229126 0.0023089 0.00136096 0.0247292 -0.0493095 0.00125 346
1 0.0851857 0.239324 0.00168019 -0.014922 0.032609 0.140437 0.00125 347
1 0.0262597 0.136253 0.00230604 -0.00427358 0.000898791 -0.0411439 0.00125 348
1 0.306179 0.129874 0.00130344 -0.048115 -0.0257756 -0.223387 0.00125 349
1 0.051493 0.00111431 0.00125353 -0.00192108 -0.00950753 -0.246125 0.00125 350
1 0.0822942 0.30597 0.00192039 0.0629152 -0.0186837 -0.0358828 0.00125 351
1 0.140588 0.275963 0.00163975 0.0268579 -0.0206136 -0.196282 0.00125 352
1 0.328966 0.345806 0.00155262 -0.0454269 -0.0896026 -0.240338 0.00125 353
1 0.304417 0.23877 0.00210179 -0.0213367 0.0290392 -0.0783136 0.00125 354
1 0.00382275 0.108047 0.00125881 0.0368788 0.0280528 -0.249329 0.00125 355
1 0.138881 0.189932 0.00177271 -0.0894604 0.000616989 -0.172731 0.00125 356
1 0.00740481 0.222121 0.00129684 -0.0283703 -0.00351683 -0.235189 0.00125 357
1 0.123895 0.267989 0.00124794 -0.00243938 0.00738564 -0.245967 0.00125 358
1 0.098695 0.337148 0.00158056 0.0236477 -0.0222272 -0.0751506 0.00125 359
1 0.289384 0.0675149 0.0020288 0.00461013 -0.0236411 -0.183646 0.00125 360
1 0.234158 0.230714 0.00144969 0.000612444 0.0172507 0.112093 0.00125 361
1 0.154464 0.194403 0.00136722 -0.00315575 0.00758195 -0.236857 0.00125 362
1 0.0732455 0.331296 0.00183059 0.00138903 -0.029515 -0.049285 0.00125 363
1 0.153199 0.0389886 0.00139058 -0.0855477 0.0277202 0.0842007 0.00125 364
1 0.0551658 0.156329 0.00128828 0.00258422 -0.0149669 0.178195 0.00125 365
1 0.284238 0.0950268 0.00145114 0.0315153 -0.00746548 0.00438533 0.00125 366
1 0.13332 0.340724 0.00130871 0.0124617 -0.00535204 -0.251638 0.00125 367
1 0.335933 0.0214057 0.0021917 0.0222404 0.0178334 -0.148978 0.00125 368
1 0.311395 0.342163 0.00189862 -0.0171524 0.0298501 -0.204976 0.00125 369
1 0.110929 0.336028 0.00175266 -0.057097 -0.0426031 -0.0840299 0.00125 370
1 0.0173845 0.0533478 0.00169669 0.0157493 0.0524367 -0.225001 0.00125 371
1 0.235037 0.0823624 0.00134458 0.0151488 -0.0300919 -0.0645542 0.00125 372
1 0.0347121 0.0552551 0.00128666 0.000970266 0.0598987 0.113867 0.00125 373
1 0.0511642 0.296456 0.00133883 0.0289145 -0.0219017 0.185553 0.00125 374
1 0.287134 0.165582 0.00123457 0.0121788 0.00428385 0.146171 0.00125 375
1 0.318317 0.0198297 0.00134012 0.00333203 4.44375e-05 0.239266 0.00125 376
1 0.120375 0.151608 0.00172397 0.0199248 0.00357767 -0.206023 0.00125 377
1 0.022757 0.341162 0.00123149 0.0188017 -0.0212848 -0.114076 0.00125 378
1 0.236358 0.0534029 0.00207682 -0.00791767 0.0278517 -0.202994 0.00125 379
1 0.243411 0.0504341 0.00140737 -0.0103119 0.00366845 -0.23462 0.00125 380
1 0.00424078 0.26132 0.00238221 0.00838635 -0.0223815 -0.109214 0.00125 381
1 0.0212208 0.0880773 0.00142431 0.0438391 0.023445 0.0131875 0.00125 382
1 0.111924 0.300345 0.00133658 -0.0120838 -0.00351743 0.238981 0.00125 383
1 0.280392 0.0702661 0.00154358 0.00733557 -0.000157922 0.148623 0.00125 384
1 0.237384 0.0943838 0.0019753 0.00807798 0.00380781 -0.226779 0.00125 385
1 0.32401 0.140063 0.00137121 -0.0174499 0.0389343 0.176012 0.00125 386
1 0.102358 0.00879089 0.00160593 -0.006638 0.000405942 -0.25444 0.00125 387
1 0.0289047 0.102954 0.00159462 0.00576502 0.0128192 -0.089966 0.00125 388
1 0.183119 0.255649 0.00242762 -0.0211264 -0.00228111 -0.0476693 0.00125 389
1 0.301808 0.158819 0.00198808 0.001174 0.0371647 -0.192716 0.00125 390
1 0.336193 0.301418 0.00243652 0.0358061 -0.00142619 -0.0862164 0.00125 391
1 0.118463 0.120631 0.00238757 -0.0187198 0.0345094 -0.104654 0.00125 392
1 0.0532754 0.0242207 0.00128497 0.0254249 -0.0037113 -0.221372 0.00125 393
1 0.197775 0.260094 0.0017743 0.00307755 0.0198308 0.126582 0.00125 394
1 0.340006 0.279311 0.00128091 -0.0114769 -0.026114 -0.20142 0.00125 395
1 0.113563 0.246076 0.00144541 -0.038181 0.00255491 -0.120674 0.00125 396
1 0.304728 0.250511 0.00162642 0.0163516 -0.0310127 0.189908 0.00125 397
1 0.0398829 0.12482 0.00141207 0.0396139 0.0172269 -0.237428 0.00125 398
1 0.088473 0.149587 0.00139493 0.000206196 0.017161 -0.0652838 0.00125 399