ITEM: TIMESTEP
1000000
ITEM: NUMBER OF ATOMS
10000
ITEM: BOX BOUNDS pp pp ff
0.0000000000000000e+00 5.9905600624999999e-01
0.0000000000000000e+00 5.9905600624999999e-01
-1.2500000000000001e-02 1.2500000000000001e-02
ITEM: ATOMS type x y z vx vy vz radius id
1 0.597644 0.396976 0.00133038 -0.0114779 0.00569579 -0.234975 0.00125 1
1 0.365263 0.508169 0.00145886 0.0226714 0.0150397 0.21233 0.00125 2
1 0.544002 0.473267 0.00183709 -0.00312782 0.0020351 -0.207567 0.00125 3
1 0.421691 0.250538 0.0013478 0.00415745 -0.00485719 -0.237114 0.00125 4
1 0.333465 0.453008 0.00167503 -0.0028898 -0.00899984 -0.228743 0.00125 5
1 0.578726 0.535837 0.00179597 -0.0471988 -0.0191865 -0.0730473 0.00125 6
1 0.260441 0.343895 0.00152263 -0.0270201 0.00114224 -0.232085 0.00125 7
1 0.255999 0.468248 0.00165403 -0.0160997 -0.0132255 -0.225406 0.00125 8
1 0.174703 0.165949 0.00166473 -0.0200175 0.00700755 -0.0876171 0.00125 9
1 0.507889 0.255226 0.00154268 0.00127303 0.0138639 -0.176711 0.00125 10
1 0.0355503 0.0519907 0.00162041 -0.0013294 0.00425418 -0.170885 0.00125 11
1 0.231987 0.245154 0.0016516 0.0121514 0.00645096 -0.0923508 0.00125 12
1 0.21661 0.473178 0.00130545 0.0221772 0.00160881 -0.288882 0.00125 13
1 0.31092 0.267049 0.00141097 -0.000987711 0.0117635 -0.226248 0.00125 14
1 0.117028 0.144324 0.00135676 0.00279832 -0.0115118 -0.150795 0.00125 15
1 0.0634801 0.527442 0.00233199 0.00393023 0.00280118 -0.115317 0.00125 16
1 0.29857 0.0126769 0.00137729 -0.0194964 0.00609028 -0.235387 0.00125 17
1 0.322417 0.113791 0.00129611 0.0161886 -0.0234067 0.187321 0.00125 18
1 0.0679005 0.31282 0.00144618 0.00825905 -0.000720448 -0.22809 0.00125 19
1 0.170422 0.405403 0.00159566 0.00030917 -0.0187806 -0.228005 0.00125 20
1 0.561897 0.494827 0.0012823 0.0117841 0.00799682 -0.229016 0.00125 21
1 0.176315 0.249146 0.00164618 0.000569061 -0.00789081 -0.0416683 0.00125 22
1 0.472996 0.277052 0.00158266 -0.00637231 -0.00934615 -0.23592 0.00125 23
1 0.453714 0.450602 0.00136668 0.00181746 0.0171144 0.165011 0.00125 24
1 0.340927 0.294927 0.00128001 -0.000198711 -0.0054304 -0.233994 0.00125 25
1 0.568135 0.593075 0.00172855 -0.00626125 0.0110332 0.107046 0.00125 26
1 0.51602 0.516642 0.001277 0.0256369 -0.0131866 0.178052 0.00125 27
1 0.367096 0.315506 0.00176866 0.00103388 0.0013257 -0.0800765 0.00125 28
1 0.353855 0.458182 0.00123683 0.00185847 0.00986839 0.168627 0.00125 29
1 0.349336 0.43933 0.00154886 -0.00897893 -0.00377499 -0.193421 0.00125 30
1 0.0234319 0.205752 0.00142763 -0.00567957 0.0129679 -0.080564 0.00125 31
1 0.428288 0.341608 0.00174894 -0.00466389 0.000684463 -0.238385 0.00125 32
1 0.0214354 0.355583 0.00173157 -0.0109178 -0.0121543 -0.082518 0.00125 33
1 0.292993 0.0883261 0.00123521 0.0146167 0.00222695 -0.117162 0.00125 34
1 0.211646 0.30486 0.00125751 -0.0226188 0.0167024 -0.113294 0.00125 35
1 0.11422 0.466816 0.00124495 -0.00105271 -0.00115989 -0.224132 0.00125 36
1 0.57056 0.531785 0.00139268 0.00608342 -0.00383773 0.248857 0.00125 37
1 0.309517 0.451473 0.00150651 0.00350339 -0.00481861 0.214277 0.00125 38
1 0.137462 0.13073 0.00160736 -0.0107374 -0.0103034 -0.22821 0.00125 39
1 0.0222971 0.0859103 0.0015912 -0.00594801 0.00145688 -0.238355 0.00125 40
1 0.0592723 0.0676464 0.00153032 0.00251757 0.0136958 -0.185343 0.00125 41
1 0.182036 0.513975 0.00134139 -0.00358833 0.0240741 0.190006 0.00125 42
1 0.290941 0.367222 0.00133638 0.00170433 -0.00388875 -0.233203 0.00125 43
1 0.136746 0.162427 0.00124714 0.00405278 -0.0132024 -0.0350757 0.00125 44
1 0.352166 0.175082 0.00146294 0.0168849 -0.00229837 -0.180829 0.00125 45
1 0.167242 0.111701 0.00123533 0.00807104 -0.00684917 0.247235 0.00125 46
1 0.372397 0.35503 0.00134434 -0.00194885 -0.0147819 0.168043 0.00125 47
1 0.229872 0.485158 0.00209686 0.000802579 -0.00392633 -0.046668 0.00125 48
1 0.446167 0.540034 0.00136571 0.00547722 0.0034316 -0.186506 0.00125 49
1 0.321119 0.0920301 0.0015925 0.0369914 -0.00115378 0.0994864 0.00125 50
1 0.077815 0.307468 0.00141921 0.00135287 -0.00609585 0.247536 0.00125 51
1 0.246543 0.469161 0.00235511 0.00874317 -0.00125546 -0.0375117 0.00125 52
1 0.317595 0.384308 0.00158174 -0.00529153 -0.00393489 0.0974484 0.00125 53
1 0.168737 0.516246 0.00153253 -0.00866455 -0.0107946 -0.189633 0.00125 54
1 0.523528 0.110078 0.00142806 -0.0273552 0.0167554 -0.207861 0.00125 55
1 0.0902552 0.152768 0.00139944 -0.0084753 -0.0140567 -0.228279 0.00125 56
1 0.181485 0.333188 0.00239632 -0.00398184 0.00126359 -0.0586343 0.00125 57
1 0.36772 0.0425747 0.00170281 -0.0270196 -0.00374992 0.0623995 0.00125 58
1 0.129403 0.185056 0.0015752 -0.00438396 -0.00429992 -0.235603 0.00125 59
1 0.51726 0.458224 0.00127851 0.0114711 0.00883499 -0.230616 0.00125 60
1 0.374813 0.130726 0.00167925 0.0210882 0.00661348 -0.227722 0.00125 61
1 0.568611 0.297054 0.00166639 0.00561582 -0.00442483 -0.0485347 0.00125 62
1 0.18409 0.123456 0.00216652 -0.0298889 0.00316962 -0.192525 0.00125 63
1 0.377705 0.117742 0.00131003 0.0143849 0.0202349 -0.234167 0.00125 64
1 0.574425 0.40555 0.00123363 0.000595046 0.000963046 -0.165688 0.00125 65
1 0.312741 0.329108 0.00142906 0.00364468 -0.0033739 0.168349 0.00125 66
1 0.208676 0.533198 0.00150896 -0.0228218 -0.00203108 0.213849 0.00125 67
1 0.262098 0.0556897 0.00151227 -0.00035021 0.00758166 -0.192376 0.00125 68
1 0.486466 0.34668 0.0013262 0.00723909 0.00787771 -0.240969 0.00125 69
1 0.248069 0.389525 0.001315 0.0195543 -0.00228828 0.150815 0.00125 70
1 0.587203 0.497349 0.00125316 0.0157305 0.00965616 -0.307325 0.00125 71
1 0.549349 0.253967 0.00140202 -0.00794627 -0.0044083 -0.239245 0.00125 72
1 0.206955 0.162615 0.00143479 -0.000525768 0.011011 0.254312 0.00125 73
1 0.452099 0.384295 0.00189031 0.0195641 0.00941441 -0.148015 0.00125 74
1 0.59013 0.241035 0.00182689 -0.00506523 -0.008676 -0.198788 0.00125 75
1 0.301443 0.285749 0.00175643 -0.0173709 0.00944135 -0.080914 0.00125 76
1 0.44973 0.0798757 0.00148274 -0.000651926 -0.00630454 -0.232457 0.00125 77
1 0.4724 0.206651 0.00199117 -0.00147543 0.00119783 -0.0603532 0.00125 78
1 0.486419 0.115394 0.00135311 -0.00711518 0.00763108 0.167435 0.00125 79
1 0.517012 0.0627777 0.00173927 -0.0106268 -0.000815621 -0.182089 0.00125 80
1 0.538483 0.342556 0.00146783 -0.00723864 -0.0148817 0.129599 0.00125 81
1 0.456617 0.341265 0.00130443 0.00611855 -0.00381544 0.207908 0.00125 82
1 0.273703 0.118499 0.00164244 -0.0042822 -0.00445103 -0.235168 0.00125 83
1 0.072818 0.415294 0.00161581 0.000775153 0.0124885 -0.233005 0.00125 84
1 0.165864 0.131633 0.00200476 -0.00646556 -0.00689769 -0.0648001 0.00125 85
1 0.53934 0.00831389 0.00142497 -0.0120935 0.0156236 -0.191975 0.00125 86
1 0.355937 0.419691 0.00135377 0.0174341 0.00568858 -0.237596 0.00125 87
1 0.180492 0.570692 0.00158474 0.00268194 0.00433237 -0.235511 0.00125 88
1 0.442054 0.227439 0.00178264 0.00489183 -0.00438879 -0.0376761 0.00125 89
1 0.201247 0.420174 0.00138985 -0.00170701 0.00165551 0.138377 0.00125 90
1 0.0649603 0.584838 0.00145065 0.00359198 -0.0142272 -0.239533 0.00125 91
1 0.045018 0.199396 0.00232524 -0.00507783 0.0113075 0.0247606 0.00125 92
1 0.494135 0.573005 0.0012296 -0.000756915 0.00891062 -0.069654 0.00125 93
1 0.0664518 0.187647 0.00134059 -0.0030029 -0.00124171 0.195529 0.00125 94
1 0.417665 0.334537 0.00131771 -0.0183298 -0.0018004 -0.231473 0.00125 95
1 0.115743 0.422367 0.00130219 0.00414298 0.00207913 0.201862 0.00125 96
1 0.408296 0.120155 0.0012309 -0.0110478 -0.00473435 0.0620754 0.00125 97
1 0.0507248 0.238784 0.00194008 -0.0146101 -0.0149039 -0.0715384 0.00125 98
1 0.146354 0.04578 0.0013921 -0.00266453 -0.0103664 -0.0738952 0.00125 99
1 0.0436313 0.445119 0.00173507 0.000171432 -0.00518015 0.0696202 0.00125 100
1 0.221655 0.140766 0.00135621 -0.000275758 -0.00119554 -0.18782 0.00125 101
1 0.196004 0.00691766 0.00141141 0.000659997 0.00622793 -0.24841 0.00125 102
1 0.435378 0.351031 0.00136885 0.00493157 0.0145791 -0.19894 0.00125 103
1 0.309734 0.378841 0.00125252 0.00703041 0.00640664 0.173475 0.00125 104
1 0.0832657 0.234004 0.00126789 0.00347742 -0.00163529 -0.289224 0.00125 105
1 0.033453 0.446567 0.00240124 -0.0117094 0.00819314 -0.0406019 0.00125 106
1 0.346993 0.2041 0.00136615 0.0159516 0.00433067 0.163984 0.00125 107
1 0.416889 0.580079 0.00157275 -0.00158344 -0.00352824 -0.184626 0.00125 108
1 0.137 0.584235 0.00123895 -0.01318 -0.00423836 -0.205598 0.00125 109
1 0.483868 0.535067 0.00136151 0.000123423 -0.0032926 -0.237359 0.00125 110
1 0.0543613 0.206412 0.00176833 0.00760685 -0.012171 -0.262715 0.00125 111
1 0.310705 0.324342 0.00135057 0.00853507 -0.0029179 0.164953 0.00125 112
1 0.584853 0.206412 0.0017792 0.00792267 -0.0221051 -0.0801579 0.00125 113
1 0.0760433 0.557816 0.00124356 -0.00867095 -0.0223827 -0.219349 0.00125 114
1 0.387127 0.312501 0.00134076 0.00318389 -0.00678336 -0.204275 0.00125 115
1 0.097164 0.50313 0.00139963 -0.00242805 -0.00694981 -0.236054 0.00125 116
1 0.308324 0.256649 0.00211895 0.00194276 -0.0185352 -0.03723 0.00125 117
1 0.258821 0.283751 0.00124114 0.00826002 0.00305721 0.191786 0.00125 118
1 0.109351 0.241046 0.00237733 -0.0069646 -0.00354936 -0.0422635 0.00125 119
1 0.158996 0.270396 0.00131524 -0.000214703 0.00490829 0.17634 0.00125 120
1 0.546861 0.342283 0.00124834 -0.00120286 0.0258641 0.194385 0.00125 121
1 0.598593 0.0818773 0.001305 0.012541 -0.00946787 0.183151 0.00125 122
1 0.15462 0.471672 0.00149567 -0.000597228 0.0205209 -0.176422 0.00125 123
1 0.427089 0.404674 0.00232139 -0.00525808 -0.0127407 -0.0397523 0.00125 124
1 0.187551 0.23231 0.00132047 -0.00688531 -0.0108991 0.197005 0.00125 125
1 0.371661 0.067171 0.00126203 0.00490903 -0.000911579 -0.230513 0.00125 126
1 0.139489 0.48785 0.00127393 0.00282999 0.0216913 -0.236345 0.00125 127
1 0.165118 0.0367762 0.00122865 -0.0102866 -0.0020044 -0.0165146 0.00125 128
1 0.49347 0.518924 0.00123972 -0.00122468 0.0120784 0.159606 0.00125 129
1 0.105189 0.179521 0.00159515 0.00579483 -0.0211449 -0.178558 0.00125 130
1 0.0719482 0.0237468 0.00141416 0.00286631 -0.00170911 -0.237937 0.00125 131
1 0.0989017 0.147854 0.00161963 0.000392677 0.0126472 0.0590784 0.00125 132
1 0.319182 0.321257 0.00171397 -0.00751278 -0.00564667 -0.238264 0.00125 133
1 0.197749 0.122099 0.00248269 0.0133204 -0.00266464 -0.0354806 0.00125 134
1 0.484384 0.421909 0.00129957 0.00136759 0.00332986 -0.231962 0.00125 135
1 0.466361 0.385308 0.00216222 -0.0102562 0.00353069 0.012118 0.00125 136
1 0.210708 0.205335 0.00128386 -0.0109154 -0.0074361 0.192019 0.00125 137
1 0.105045 0.201854 0.00145138 -0.011086 -0.0104895 0.114475 0.00125 138
1 0.386256 0.228245 0.00167428 0.00292178 0.0001133 -0.0543727 0.00125 139
1 0.198662 0.302146 0.00136257 -0.0160143 -0.00329633 0.184679 0.00125 140
1 0.16526 0.101038 0.00222238 0.00468719 0.00458481 -0.0485187 0.00125 141
1 0.510218 0.0684997 0.00171244 0.0252491 0.0026375 -0.0906198 0.00125 142
1 0.0243074 0.229393 0.00145178 0.0154559 0.00582908 0.140816 0.00125 143
1 0.571752 0.0256214 0.00240377 -0.00369246 0.00299802 -0.0378142 0.00125 144
1 0.283403 0.298671 0.00146719 -0.00929469 -0.00196347 -0.22803 0.00125 145
1 0.0469149 0.391914 0.00141526 -0.00825596 0.0248261 -0.198468 0.00125 146
1 0.284466 0.478492 0.00148269 -0.00880358 0.0154432 -0.180298 0.00125 147
1 0.1074 0.154824 0.0012617 -0.0132383 -0.00862738 -0.231259 0.00125 148
1 0.49296 0.254245 0.00146192 -0.0048328 -0.0126561 -0.246542 0.00125 149
1 0.236668 0.171183 0.0013658 -0.000803113 -0.012298 -0.1876 0.00125 150
1 0.285892 0.367945 0.00173419 -0.00220734 0.00548111 0.0735699 0.00125 151
1 0.230046 0.0632417 0.00159168 0.0145614 0.0145059 0.0939647 0.00125 152
1 0.0996561 0.266346 0.00215434 -0.00841199 0.0041708 -0.050292 0.00125 153
1 0.492975 0.0873507 0.00139825 0.000964157 -0.023013 0.175823 0.00125 154
1 0.0926153 0.581987 0.00145378 -0.0149889 -0.023374 -0.231689 0.00125 155
1 0.346099 0.195279 0.0013863 0.00517501 -0.00250268 0.153953 0.00125 156
1 0.363819 0.0176962 0.00152257 0.0242897 0.0187718 0.204871 0.00125 157
1 0.073611 0.255857 0.00128685 -0.00589191 0.0211391 0.273952 0.00125 158
1 0.287373 0.403723 0.0012793 -0.00448586 -0.00858848 -0.274472 0.00125 159
1 0.573922 0.483482 0.00143439 0.0120151 0.0178133 -0.231609 0.00125 160
1 0.25819 0.520757 0.00139698 -0.0108845 -0.00585389 -0.236269 0.00125 161
1 0.569219 0.0966447 0.00139202 -0.0165512 0.0293229 -0.268397 0.00125 162
1 0.118143 0.428266 0.00155505 -0.0054614 0.0194824 0.103014 0.00125 163
1 0.460608 0.175402 0.00137103 -0.00454171 -0.00326305 0.183506 0.00125 164
1 0.20617 0.230561 0.00152164 -0.0125084 -0.0104055 -0.238097 0.00125 165
1 0.28013 0.306801 0.00137015 0.00446494 -0.00520449 -0.238745 0.00125 166
1 0.551606 0.00575348 0.00157187 -0.00655588 -0.00569175 -0.229519 0.00125 167
1 0.572793 0.197318 0.00144508 0.0037659 0.00381772 0.230575 0.00125 168
1 0.587869 0.29751 0.00251671 0.00852076 0.0142632 0.0390544 0.00125 169
1 0.363418 0.0378387 0.00206227 0.00310368 0.00825166 -0.0635153 0.00125 170
1 0.00511066 0.208491 0.00126936 -0.00159371 0.000226547 0.209179 0.00125 171
1 0.48586 0.493856 0.0015142 -0.0141202 -0.00268583 -0.232128 0.00125 172
1 0.195155 0.185243 0.00155773 0.0010946 -0.000559162 0.149138 0.00125 173
1 0.169001 0.0449961 0.00138704 0.0097755 -0.0148536 0.154166 0.00125 174
1 0.274119 0.252126 0.00166398 -0.00738366 0.00704643 0.0859126 0.00125 175
1 0.440463 0.429781 0.00132278 0.00934343 0.00863525 -0.23492 0.00125 176
1 0.211696 0.048172 0.00126885 0.0172593 0.0194323 0.258365 0.00125 177
1 0.124521 0.100544 0.00149797 -0.00252461 0.0225639 -0.238752 0.00125 178
1 0.502065 0.473318 0.00124111 -0.000348173 0.0087781 0.206602 0.00125 179
1 0.280445 0.0785287 0.00165976 -0.00586732 0.0153299 -0.239613 0.00125 180
1 0.360422 0.351323 0.00167032 0.00114689 -0.00176016 0.0610715 0.00125 181
1 0.391796 0.477134 0.00145066 0.00645633 0.00719742 -0.196866 0.00125 182
1 0.338799 0.418047 0.00131837 -0.0141489 0.00778285 -0.235835 0.00125 183
1 0.359757 0.272866 0.00147131 0.00228051 -0.00361447 -0.232671 0.00125 184
1 0.177092 0.441485 0.00126162 -0.00582828 0.00469368 0.242357 0.00125 185
1 0.0484523 0.371925 0.00188894 0.000287351 -0.000171756 -0.0833144 0.00125 186
1 0.0963513 0.406958 0.00130348 0.00239328 -0.0130725 0.201409 0.00125 187
1 0.199747 0.438166 0.00175209 0.0104935 -0.0168954 -0.234327 0.00125 188
1 0.271958 0.0948773 0.00127165 0.00473307 -0.00582583 -0.238086 0.00125 189
1 0.373556 0.521169 0.00159182 0.00166731 0.00437836 -0.183366 0.00125 190
1 0.412221 0.0287106 0.00135547 -0.0116569 0.00574496 0.25738 0.00125 191
1 0.0518614 0.112265 0.00166403 -0.00403344 0.00873386 0.0914872 0.00125 192
1 0.259905 0.17185 0.00183737 -0.00122458 0.00253576 -0.159573 0.00125 193
1 0.0851919 0.00821765 0.00223828 0.0048784 0.00119084 -0.0695342 0.00125 194
1 0.201299 0.229178 0.00142753 -0.0139112 -0.00742595 -0.245857 0.00125 195
1 0.173444 0.363451 0.00137992 0.00295841 0.00498129 0.181038 0.00125 196
1 0.537423 0.147204 0.00161777 -0.00875168 -0.000198106 -0.0931242 0.00125 197
1 0.252692 0.444732 0.00132508 0.00274576 -0.0275835 0.153304 0.00125 198
1 0.0463555 0.221196 0.00126285 -0.00912555 0.00483436 -0.283212 0.00125 199
1 0.0160207 0.0653933 0.0014303 -0.0157346 -0.00423733 0.102086 0.00125 200
1 0.131335 0.570419 0.00155961 0.00581119 0.000336246 -0.193233 0.00125 201
1 0.557241 0.30969 0.00155768 0.00627579 -0.0222725 0.099324 0.00125 202
1 0.0978149 0.401872 0.00166064 -0.00214576 0.00205351 0.200935 0.00125 203
1 0.323089 0.277879 0.0012544 0.011357 -3.08605e-05 -0.234358 0.00125 204
1 0.101161 0.473776 0.00141457 0.00648547 -0.0110312 -0.23196 0.00125 205
1 0.577063 0.574244 0.00162647 0.0010504 -0.0003076 -0.0920652 0.00125 206
1 0.136855 0.179517 0.00166783 0.0151323 -0.00603036 -0.0860083 0.00125 207
1 0.356094 0.395999 0.00139441 -0.00462263 -0.00894528 -0.279225 0.00125 208
1 0.444512 0.0818445 0.00176901 -0.0113361 -0.0153636 0.0869677 0.00125 209
1 0.146452 0.0684334 0.00146871 0.0125523 -0.0133429 -0.239218 0.00125 210
1 0.259116 0.211564 0.00142659 -0.00268481 -0.0024939 0.137619 0.00125 211
1 0.407235 0.228912 0.00133963 -0.0169322 0.022386 0.27196 0.00125 212
1 0.310557 0.588765 0.00145398 0.0201733 0.000133241 -0.200862 0.00125 213
1 0.18104 0.401666 0.00138347 -0.00298412 -0.00158801 -0.236714 0.00125 214
1 0.00504995 0.487115 0.00159748 0.00148859 -0.0049005 0.0962775 0.00125 215
1 0.0650316 0.259515 0.00162048 -0.0147237 0.00954617 0.0923957 0.00125 216
1 0.591488 0.334419 0.00159119 0.0113973 0.00111672 -0.234821 0.00125 217
1 0.49216 0.403719 0.00124176 -0.000984561 -0.0022807 -0.187772 0.00125 218
1 0.259211 0.547421 0.0014362 0.00528227 0.0141565 0.210577 0.00125 219
1 0.16429 0.316319 0.00124109 -0.0197271 -0.00260853 -0.237058 0.00125 220
1 0.384988 0.323807 0.00129089 -0.00261012 0.00919385 0.188124 0.00125 221
1 0.241544 0.459936 0.00142866 -0.000484795 0.00594681 -0.0781714 0.00125 222
1 0.346068 0.213915 0.00132564 0.0300777 -0.00660322 0.178689 0.00125 223
1 0.258419 0.426965 0.00135517 0.00100456 0.0106248 0.19047 0.00125 224
1 0.349754 0.597858 0.00125013 0.00423031 0.00314975 0.0134894 0.00125 225
1 0.148179 0.187668 0.00148141 0.00196974 0.0019068 -0.23932 0.00125 226
1 0.0977366 0.286062 0.00178442 -0.00714404 0.00607184 -0.201495 0.00125 227
1 0.541149 0.20889 0.00130335 0.0139685 -0.0159102 0.202337 0.00125 228
1 0.512144 0.455171 0.0016245 -0.00958234 0.00219111 -0.232346 0.00125 229
1 0.488484 0.528823 0.00146895 0.00217665 0.00558112 0.110306 0.00125 230
1 0.419426 0.531226 0.00139557 0.00902305 0.0177195 -0.200589 0.00125 231
1 0.194012 0.449231 0.00125259 0.0149171 -0.0180718 0.194954 0.00125 232
1 0.0331681 0.12736 0.00153471 -0.0159006 0.00540836 0.105024 0.00125 233
1 0.337876 0.163413 0.00160845 -0.00270755 0.0174485 -0.229164 0.00125 234
1 0.451387 0.15393 0.00133903 0.00348868 0.0149685 0.196204 0.00125 235
1 0.44556 0.597068 0.00139563 0.00786936 0.011336 0.223435 0.00125 236
1 0.307368 0.1115 0.00178315 -0.0141993 -0.00285857 -0.0376782 0.00125 237
1 0.175632 0.412164 0.00156185 0.00530195 0.00522699 -0.235332 0.00125 238
1 0.0321495 0.369813 0.00148366 0.00707972 0.00968173 0.248196 0.00125 239
1 0.0381907 0.422007 0.00132921 0.00422762 -0.0123697 -0.251208 0.00125 240
1 0.0226449 0.477469 0.00210072 -0.0103875 -0.00360472 -0.0595573 0.00125 241
1 0.40594 0.367984 0.00130147 0.00222125 0.0122079 -0.232678 0.00125 242
1 0.0936704 0.107445 0.00164074 0.00286217 0.00673208 -0.231396 0.00125 243
1 0.506888 0.520222 0.00128869 0.00214691 -0.00363762 -0.254752 0.00125 244
1 0.491256 0.568625 0.00159691 -0.00146092 0.00591672 -0.178379 0.00125 245
1 0.219459 0.191861 0.00125008 -0.00304489 -0.00318325 0.191625 0.00125 246
1 0.120973 0.524376 0.00171641 -0.0103753 -0.00229875 -0.210556 0.00125 247
1 0.496543 0.290217 0.0016204 0.00155608 0.00411227 -0.0927575 0.00125 248
1 0.149311 0.100407 0.00158912 -0.00468397 -0.00472627 0.0930902 0.00125 249
1 0.300604 0.415318 0.0015155 -0.00142458 0.000760872 -0.105571 0.00125 250
1 0.49903 0.464604 0.00123318 -0.000434389 -0.00559992 -0.0605311 0.00125 251
1 0.0566868 0.332045 0.00174512 0.00392253 -0.00392617 -0.180538 0.00125 252
1 0.29013 0.435627 0.00132937 -0.0020615 -0.00244587 -0.235779 0.00125 253
1 0.0821098 0.121552 0.00180943 0.00695306 0.0108005 -0.0914785 0.00125 254
1 0.455995 0.441749 0.00129915 0.00510118 0.00482579 -0.285636 0.00125 255
1 0.25445 0.504032 0.00159331 -0.0117152 -0.0348933 0.193908 0.00125 256
1 0.08802 0.141941 0.0022042 0.0146457 -0.0106822 0.0126954 0.00125 257
1 0.278263 0.396317 0.00245547 -0.00628054 -0.0102871 -0.0311803 0.00125 258
1 0.397287 0.0557078 0.00171519 0.0230305 0.0173895 0.111159 0.00125 259
1 0.566718 0.20123 0.00174384 0.00405128 0.0152751 -0.0891549 0.00125 260
1 0.092074 0.351111 0.00136804 -0.00107026 0.000722469 -0.237912 0.00125 261
1 0.136102 0.222365 0.00237749 -0.0132343 -0.00687248 -0.103849 0.00125 262
1 0.141308 0.257381 0.00123059 0.00137184 -0.00311519 -0.0495091 0.00125 263
1 0.315922 0.203544 0.00127355 -0.0226269 0.0142345 0.214437 0.00125 264
1 0.366285 0.0328007 0.00128493 -0.00844674 0.00758395 -0.23319 0.00125 265
1 0.309575 0.287781 0.00155949 0.00690193 0.00267507 -0.236094 0.00125 266
1 0.535843 0.229258 0.0013645 0.00747895 0.0103464 0.147372 0.00125 267
1 0.463314 0.238448 0.0013932 0.00431814 0.00725525 -0.239231 0.00125 268
1 0.335333 0.592846 0.00136766 0.00714436 -0.0118411 0.1609 0.00125 269
1 0.53906 0.0336606 0.00132687 -0.00742257 0.0147316 -0.235153 0.00125 270
1 0.538908 0.418673 0.00217047 -0.00770779 -0.00187717 -0.0710368 0.00125 271
1 0.265816 0.0667459 0.0013568 0.00474645 0.00388259 -0.239021 0.00125 272
1 0.408388 0.468343 0.00194036 -0.0168323 -0.00130892 -0.0709582 0.00125 273
1 0.305221 0.560747 0.00174462 0.00635441 -0.00173438 -0.201658 0.00125 274
1 0.105724 0.0666197 0.00166654 0.000314767 -0.00277781 -0.0545997 0.00125 275
1 0.119165 0.498452 0.00152547 -0.0100635 0.00594452 -0.237778 0.00125 276
1 0.542178 0.274302 0.00130072 -0.0221691 -0.0392259 0.200436 0.00125 277
1 0.449372 0.141326 0.00126385 -0.0128547 0.00855751 -0.239038 0.00125 278
1 0.0178687 0.394249 0.00142583 -0.00673685 -0.0145322 0.235711 0.00125 279
1 0.058121 0.484708 0.00200731 -0.00957373 0.00761721 -0.0764098 0.00125 280
1 0.0158937 0.183593 0.00123044 -0.00297806 -0.00107382 0.110274 0.00125 281
1 0.369634 0.575485 0.00126791 0.0174432 -0.00529128 -0.230993 0.00125 282
1 0.57138 0.348461 0.00128794 -0.0154591 -0.00452023 0.165123 0.00125 283
1 0.0131081 0.431299 0.00146271 -0.0127117 -0.0104828 0.130932 0.00125 284
1 0.519523 0.0728113 0.00122827 -0.00530436 -0.0201143 0.00576657 0.00125 285
1 0.447836 0.145675 0.00137179 0.00403128 -0.000428041 0.259666 0.00125 286
1 0.348374 0.378252 0.00139859 -0.0169055 -0.00872557 -0.238967 0.00125 287
1 0.316802 0.514525 0.00197789 0.0107457 0.000314398 -0.193969 0.00125 288
1 0.0179209 0.191632 0.00213569 -0.0177125 -0.00598087 -0.0518934 0.00125 289
1 0.108234 0.0673988 0.0023456 -0.0285568 -0.00795278 -0.0546714 0.00125 290
1 0.558037 0.00916203 0.00129397 -0.00910143 0.0157955 0.168097 0.00125 291
1 0.353798 0.160621 0.00137285 -0.00458532 0.0098311 0.158404 0.00125 292
1 0.290576 0.55983 0.0013016 0.0145266 -0.0114701 0.0309221 0.00125 293
1 0.230873 0.526127 0.00173455 0.000274897 0.00521978 0.106646 0.00125 294
1 0.0950222 0.183913 0.00229152 0.0197983 -0.00942317 -0.0437548 0.00125 295
1 0.279065 0.0714649 0.00149853 0.0246449 0.00904526 -0.286063 0.00125 296
1 0.441848 0.380226 0.00231451 -0.000679135 -0.0017308 -0.0514676 0.00125 297
1 0.00277866 0.534711 0.00160012 -0.017627 0.00662624 -0.227648 0.00125 298
1 0.248737 0.373063 0.00180919 0.00578522 0.00968 -0.149885 0.00125 299
1 0.466076 0.0699543 0.0014582 0.0117698 -0.0110938 0.209724 0.00125 300
1 0.207505 0.220951 0.00123138 -0.00258162 0.00130975 0.213773 0.00125 301
1 0.0883283 0.132851 0.00124166 0.00542046 0.00145103 -0.175147 0.00125 302
1 0.408016 0.518581 0.00149244 -0.00288978 0.00947125 0.0763325 0.00125 303
1 0.363559 0.342532 0.00130245 -0.00915455 -0.0121271 0.00871365 0.00125 304
1 0.268193 0.253365 0.00244066 -0.0113429 0.00603074 -0.0469686 0.00125 305
1 0.343154 0.0665874 0.00152654 0.000945449 -0.00028685 0.0600333 0.00125 306
1 0.30568 0.513951 0.00134229 0.0206512 -0.00684388 0.1871 0.00125 307
1 0.426599 0.267049 0.00174368 -0.00710302 -0.00549762 0.112484 0.00125 308
1 0.524806 0.377948 0.00137761 0.00122434 -0.00747421 -0.236735 0.00125 309
1 0.254257 0.197382 0.0016193 -0.0182218 -0.0589932 0.0704743 0.00125 310
1 0.487899 0.261004 0.001399 0.00141834 0.0158907 0.148108 0.00125 311
1 0.458986 0.232907 0.00145137 0.0158271 -0.00400857 0.131595 0.00125 312
1 0.367289 0.228844 0.00154653 0.0146221 -0.00209982 -0.16993 0.00125 313
1 0.413263 0.329395 0.0024463 0.00785854 -0.00161986 -0.0380775 0.00125 314
1 0.0830578 0.350753 0.00128262 0.00207109 -0.00408485 -0.231262 0.00125 315
1 0.0733932 0.0266177 0.00132286 0.00150619 -0.00066132 0.240234 0.00125 316
1 0.473964 0.0367916 0.00146075 0.00242889 0.0137547 -0.23756 0.00125 317
1 0.0145254 0.582677 0.00152273 0.00255402 -0.00250142 0.0624534 0.00125 318
1 0.432506 0.320724 0.00128331 -0.0271934 0.00155109 0.187169 0.00125 319
1 0.408196 0.196269 0.00131665 0.00791275 0.00658769 -0.310241 0.00125 320
1 0.226593 0.238349 0.00236257 -0.00313895 -0.01086 0.0276374 0.00125 321
1 0.306912 0.436757 0.00127325 -0.000616456 0.00856723 -0.232408 0.00125 322
1 0.349682 0.262406 0.00150653 -0.0165067 0.010838 -0.194098 0.00125 323
1 0.387853 0.580683 0.00125225 -0.00330836 -0.00636799 -0.236075 0.00125 324
1 0.461889 0.000488545 0.00130873 0.000853469 0.00983825 -0.234721 0.00125 325
1 0.458321 0.204963 0.00241502 -0.0130799 0.00633901 0.000424403 0.00125 326
1 0.134194 0.479607 0.00167413 0.000673237 0.0030957 0.0959679 0.00125 327
1 0.410178 0.328977 0.00140107 0.00341055 -0.00217683 -0.237133 0.00125 328
1 0.408269 0.462044 0.00142046 0.0135132 -0.02085 -0.181422 0.00125 329
1 0.381272 0.351785 0.00123926 9.10501e-06 0.00242557 0.183103 0.00125 330
1 0.108699 0.130394 0.00187091 -0.00142058 -0.00252077 -0.0735466 0.00125 331
1 0.283999 0.170119 0.00133751 -0.0101016 0.00835054 -0.00513953 0.00125 332
1 0.299975 0.334315 0.00143907 -0.00468977 -0.00627229 -0.24495 0.00125 333
1 0.188108 0.211898 0.00157062 -0.000734014 0.00534962 0.14709 0.00125 334
1 0.576683 0.0731482 0.00193132 0.0040676 -0.000752951 -0.0695303 0.00125 335
1 0.560792 0.585467 0.0018932 -0.00332366 -0.012723 -0.0436803 0.00125 336
1 0.381422 0.281476 0.00142751 -0.00853695 -0.00732217 -0.239378 0.00125 337
1 0.593907 0.158077 0.00139935 0.0102864 -0.00774888 0.149726 0.00125 338
1 0.230583 0.0497038 0.0012515 0.000247579 0.00133707 -0.306643 0.00125 339
1 0.382895 0.148826 0.00135124 0.0144373 0.00518853 0.166022 0.00125 340
1 0.568209 0.0597985 0.00241969 -0.0201719 -0.0251208 -0.057416 0.00125 341
1 0.546603 0.228761 0.00132495 0.00282564 -0.00365944 0.147236 0.00125 342
1 0.244624 0.157006 0.00126133 0.000628988 0.000221893 0.181135 0.00125 343
1 0.486173 0.215989 0.00143181 -0.0128635 -0.0073227 -0.240695 0.00125 344
1 0.161283 0.315795 0.00245346 0.0032337 0.00331584 -0.032395 0.00125 345
1 0.216393 0.305491 0.00161568 0.000234106 0.000661931 0.0900463 0.00125 346
1 0.0915003 0.45943 0.00156849 0.00735851 -0.0050044 -0.241914 0.00125 347
1 0.124285 0.540516 0.00127497 0.0015731 -0.00529113 -0.231711 0.00125 348
1 0.149323 0.511326 0.00123329 -0.0196648 -0.00416504 0.132575 0.00125 349
1 0.321281 0.586433 0.00235115 0.000233115 0.00764778 -0.113071 0.00125 350
1 0.550707 0.339543 0.00247371 0.00492422 -0.0320735 -0.0350343 0.00125 351
1 0.194545 0.520134 0.0013867 -0.000609527 -0.00142986 0.25627 0.00125 352
1 0.0757979 0.454765 0.00197561 -0.000513552 0.0237866 -0.0673063 0.00125 353
1 0.0170477 0.442523 0.00127705 -0.0262703 0.00147117 -0.223269 0.00125 354
1 0.330989 0.344396 0.0014279 0.0047536 0.00433236 0.174445 0.00125 355
1 0.456497 0.273647 0.001298 -0.0111699 -0.00411221 0.105495 0.00125 356
1 0.282215 0.0991904 0.00237136 -0.0140422 0.0057788 -0.105271 0.00125 357
1 0.10606 0.362777 0.00172586 -0.0117803 0.00299712 0.110453 0.00125 358
1 0.573949 0.205415 0.00165889 0.0221912 -0.0121279 -0.232693 0.00125 359
1 0.266581 0.0219901 0.00159925 0.0128172 0.00190549 -0.228991 0.00125 360
1 0.556477 0.551226 0.00166806 -0.00353714 -0.00615895 -0.159366 0.00125 361
1 0.494845 0.14554 0.00128604 -0.00774646 -0.00749129 0.0523921 0.00125 362
1 0.360429 0.535201 0.00159271 -0.0118831 -0.00124167 0.0518212 0.00125 363
1 0.0285657 0.328997 0.00162583 0.00125464 6.81614e-06 0.0894533 0.00125 364
1 0.435669 0.317049 0.00140805 -0.00552493 0.000888171 -0.239373 0.00125 365
1 0.509453 0.311169 0.00238974 -0.000613574 -0.00525196 0.0275268 0.00125 366
1 0.154001 0.520233 0.0016363 0.00134 -0.00192652 -0.0613945 0.00125 367
1 0.0967263 0.453477 0.00129106 0.00332102 0.00874239 0.189985 0.00125 368
1 0.230716 0.407382 0.00127822 -0.0462382 0.0145884 -0.232309 0.00125 369
1 0.0101761 0.133289 0.00155981 -0.00371087 0.0129267 0.114962 0.00125 370
1 0.0617039 0.243184 0.00214455 -0.00915979 0.00209137 -0.0564477 0.00125 371
1 0.38042 0.289768 0.00137234 -0.00140458 -0.00548614 0.187008 0.00125 372
1 0.27186 0.383339 0.0012488 -0.0157448 0.0231612 -0.221698 0.00125 373
1 0.490774 0.0132329 0.00129426 4.66115e-05 0.0127773 -0.238895 0.00125 374
1 0.468251 0.418657 0.00129364 -0.00334607 0.000988246 -0.101843 0.00125 375
1 0.135625 0.196243 0.00179398 0.00186453 -0.0043962 -0.0752608 0.00125 376
1 0.157378 0.26022 0.00130664 -0.00550277 0.000186906 -0.234402 0.00125 377
1 0.481238 0.583824 0.00189496 -0.00396639 -0.00637614 -0.0146475 0.00125 378
1 0.121061 0.12129 0.00237084 -6.74138e-05 -0.0140305 -0.0428346 0.00125 379
1 0.263472 0.53072 0.00184652 0.000132733 -0.0022188 -0.152432 0.00125 380
1 0.246036 0.26065 0.00148947 0.0105393 -0.0164352 -0.178891 0.00125 381
1 0.0572216 0.226332 0.00164464 -0.00372054 0.0128116 0.0921003 0.00125 382
1 0.227021 0.0636791 0.00170059 -0.0112553 0.00395848 0.090949 0.00125 383
1 0.095099 0.202698 0.00125535 0.0135996 -0.00758143 0.207176 0.00125 384
1 0.202984 0.275849 0.00163309 0.00836734 0.00998565 -0.280469 0.00125 385
1 0.34343 0.0112135 0.00130504 0.00245182 0.00239517 -0.234807 0.00125 386
1 0.354676 0.371308 0.00182286 0.00884881 -6.99967e-05 -0.0855705 0.00125 387
1 0.0730292 0.579237 0.00197665 0.00154478 0.00862326 -0.194545 0.00125 388
1 0.0326777 0.493136 0.00142334 -0.0120791 -0.00624894 0.111183 0.00125 389
1 0.331238 0.0894782 0.00144949 -0.00415467 -0.00382716 0.229822 0.00125 390
1 0.255317 0.597279 0.00188759 0.00357784 0.0123776 -0.245544 0.00125 391
1 0.43003 0.571534 0.00128887 0.0429834 0.00214105 -0.274725 0.00125 392
1 0.222712 0.234853 0.00140448 0.00196718 -0.0182228 -0.238915 0.00125 393
1 0.452546 0.0776039 0.00179154 0.00124464 -0.00835406 -0.0794662 0.00125 394
1 0.0484395 0.102434 0.00150571 -0.0104076 0.00723737 0.138775 0.00125 395
1 0.203122 0.287537 0.00126445 -0.00574348 0.00848421 -0.228433 0.00125 396