ITEM: TIMESTEP
1000000
ITEM: NUMBER OF ATOMS
10000
ITEM: BOX BOUNDS pp pp ff
0.0000000000000000e+00 3.1085466499999997e-01
0.0000000000000000e+00 3.1085466499999997e-01
-1.2500000000000001e-02 1.2500000000000001e-02
ITEM: ATOMS type x y z vx vy vz radius id
1 0.0481698 0.0836164 0.00231096 0.00741428 -0.0120945 -0.0136269 0.00125 1
1 0.00694041 0.121678 0.00161046 0.0307901 -0.0145531 -0.0837469 0.00125 2
1 0.0035157 0.106103 0.00126451 -0.0515164 -0.019838 -0.265549 0.00125 3
1 0.167255 0.173473 0.00241252 -0.0512363 -0.0422452 -0.0434217 0.00125 4
1 0.24999 0.0364178 0.00147326 -0.0366236 0.0230208 -0.201545 0.00125 5
1 0.130127 0.0232679 0.00190546 0.0124239 0.0198536 -0.233284 0.00125 6
1 0.180713 0.130989 0.00206022 0.0215739 -0.00319741 -0.0430963 0.00125 7
1 0.229019 0.0181551 0.00150976 0.0296661 0.0773191 -0.227859 0.00125 8
1 0.0478624 0.0522448 0.00143703 0.00404536 -0.0356138 -0.0539837 0.00125 9
1 0.277355 0.263832 0.00205321 -0.006306 -0.059696 0.0165726 0.00125 10
1 0.300187 0.228972 0.00151966 -0.0419695 0.0553684 -0.208801 0.00125 11
1 0.00171432 0.0145438 0.00139932 -0.0094748 -0.0431332 -0.260813 0.00125 12
1 0.0384203 0.135958 0.00184327 0.00962119 -0.00913247 -0.0795248 0.00125 13
1 0.191032 0.194701 0.0012532 -0.0107197 -0.0237326 -0.20781 0.00125 14
1 0.00332271 0.267729 0.00244842 -0.0609016 0.014877 -0.0681324 0.00125 15
1 0.287003 0.0282052 0.00197983 0.0597148 -0.0257677 -0.174654 0.00125 16
1 0.144796 0.179956 0.00129432 -0.0302517 -0.0023653 -0.239252 0.00125 17
1 0.0414568 0.0989088 0.00145037 -0.0432252 -0.0671171 0.15358 0.00125 18
1 0.217206 0.138155 0.00151649 0.0102193 -0.0263511 -0.236531 0.00125 19
1 0.164909 0.0245925 0.00177105 -0.0101246 0.0159532 -0.0802483 0.00125 20
1 0.239881 0.0583323 0.00142104 -0.00252914 0.0128742 0.164202 0.00125 21
1 0.242972 0.19398 0.00131156 0.00221483 0.00119972 -0.233378 0.00125 22
1 0.168771 0.219372 0.00248406 0.00381469 0.025858 -0.0369795 0.00125 23
1 0.282102 0.12489 0.00127669 0.0036887 -0.00900099 -0.238417 0.00125 24
1 0.0676753 0.0774012 0.0014852 0.0158675 -0.0343012 -0.195614 0.00125 25
1 0.164799 0.296475 0.00133258 -0.0752502 0.0117695 -0.201293 0.00125 26
1 0.104513 0.268599 0.00146962 -0.0237723 -0.0395941 -0.0898576 0.00125 27
1 0.273657 0.175753 0.00148933 -0.00459963 0.0281568 0.115756 0.00125 28
1 0.211644 0.252386 0.00169168 -0.0444985 -0.0649193 -0.0838576 0.00125 29
1 0.306852 0.21676 0.00154121 0.000662138 -0.0517972 -0.235858 0.00125 30
1 0.129694 0.133664 0.00151833 0.00239562 0.0122024 -0.2077 0.00125 31
1 0.0404075 0.087126 0.00126503 -0.00190758 -0.0017693 0.15906 0.00125 32
1 0.247371 0.104011 0.00238362 0.007196 -0.0205857 -0.0966662 0.00125 33
1 0.121311 0.230846 0.00164291 -0.0301367 0.0557513 -0.173835 0.00125 34
1 0.292601 0.291607 0.00136059 0.0872068 -0.110576 0.0783745 0.00125 35
1 0.0224115 0.306558 0.00166435 -0.0249264 0.011204 -0.233397 0.00125 36
1 0.282737 0.158793 0.00229879 0.0157717 0.0235903 -0.12607 0.00125 37
1 0.199464 0.103404 0.00127902 0.0211562 0.0442663 0.191307 0.00125 38
1 0.252129 0.270141 0.00163715 -0.0117708 -0.0135956 -0.223693 0.00125 39
1 0.245702 0.195687 0.00148842 0.0183221 0.0220083 0.180179 0.00125 40
1 0.102842 0.305898 0.00157525 -0.00110517 0.00184955 0.0563054 0.00125 41
1 0.153837 0.0272007 0.00155729 -0.00181614 0.00378486 0.197502 0.00125 42
1 0.138628 0.294982 0.00233534 -0.000769189 -0.0160167 0.020085 0.00125 43
1 0.245593 0.0463418 0.00209676 -0.0204451 0.00279147 -0.20607 0.00125 44
1 0.18361 0.198365 0.00127075 -0.0158151 0.0038999 -0.249167 0.00125 45
1 0.304867 0.252387 0.00126169 0.0160623 0.00650655 -0.213391 0.00125 46
1 0.0712574 0.250962 0.00134928 0.00611135 -0.018763 -0.228059 0.00125 47
1 0.292138 0.187631 0.00192258 -0.010783 0.0127683 -0.0527478 0.00125 48
1 0.119909 0.221428 0.00172705 0.0156506 -0.0132163 0.113078 0.00125 49
1 0.25943 0.150312 0.0013036 0.0275185 -0.0147725 0.228136 0.00125 50
1 0.00637849 0.0441612 0.00147562 0.0191067 -0.00694684 -0.0827291 0.00125 51
1 0.188872 0.115745 0.00124785 -0.00895456 -0.0103174 0.195098 0.00125 52
1 0.0681451 0.229468 0.00210904 0.0112091 -0.0165291 -0.194651 0.00125 53
1 0.195042 0.0659778 0.00190819 0.031747 -0.042732 -0.113079 0.00125 54
1 0.164118 0.084074 0.00135098 -0.0146397 0.00676757 -0.0626492 0.00125 55
1 0.293024 0.21977 0.00149332 -0.0107972 0.0151907 0.15487 0.00125 56
1 0.290439 0.230189 0.00130522 0.0837775 -0.0271337 0.0649783 0.00125 57
1 0.305984 0.0569723 0.00225272 0.00724333 -0.0044967 -0.0474628 0.00125 58
1 0.265223 0.210619 0.00129756 -0.0241521 -0.0107936 -0.294918 0.00125 59
1 0.0465387 0.17448 0.00145707 0.0286348 -0.0191282 0.126556 0.00125 60
1 0.0363396 0.228182 0.00205316 -0.00642976 -0.00869676 -0.0641336 0.00125 61
1 0.228324 0.0296898 0.00186621 0.00304086 0.011168 -0.0518937 0.00125 62
1 0.195436 0.298814 0.00169541 -0.00075881 -0.00181817 -0.215239 0.00125 63
1 0.00493526 0.18319 0.00139097 0.0186992 0.00538095 0.195567 0.00125 64
1 0.108911 0.198144 0.00186538 -0.0256334 -0.0659961 -0.155003 0.00125 65
1 0.0900298 0.0048167 0.00149918 0.0782634 0.0808331 0.0816444 0.00125 66
1 0.184387 0.0766283 0.00150572 -0.0634741 -0.0282296 -0.114731 0.00125 67
1 0.0772452 0.0849255 0.00246493 0.0773207 -0.0277542 0.0302604 0.00125 68
1 0.310467 0.097915 0.00123045 0.0238496 0.00271962 0.0954863 0.00125 69
1 0.0139539 0.223265 0.00151851 -0.0342218 0.0621444 -0.177544 0.00125 70
1 0.051047 0.08597 0.00179973 0.0357739 0.0434398 -0.0750488 0.00125 71
1 0.19026 0.253185 0.00148713 0.0154812 0.022307 -0.205941 0.00125 72
1 0.158467 0.124192 0.00165779 -0.0231262 -0.0240311 -0.0193624 0.00125 73
1 0.211725 0.26144 0.00192922 0.0206412 -0.0749674 -0.110109 0.00125 74
1 0.275424 0.212804 0.00124252 0.0260638 -0.027975 0.0347664 0.00125 75
1 0.187063 0.0329624 0.00171906 0.0211429 -0.00784601 -0.0663455 0.00125 76
1 0.308224 0.0993161 0.00128619 -0.00303769 -0.00601503 0.1959 0.00125 77
1 0.183413 0.159667 0.00154423 -0.0153844 0.0473879 -0.223542 0.00125 78
1 0.2723 0.172613 0.00127663 0.0305171 0.0169618 -0.233378 0.00125 79
1 0.00789354 0.203383 0.00194925 0.00232238 0.0131751 -0.0109485 0.00125 80
1 0.209782 0.11534 0.00172127 -0.0105646 0.0197305 0.17415 0.00125 81
1 0.224775 0.257395 0.00223102 -0.0204277 0.063587 -0.0227345 0.00125 82
1 0.26269 0.223249 0.00234148 -0.0250109 0.0134799 -0.0509783 0.00125 83
1 0.111499 0.0498337 0.00137813 0.0642976 -0.0358234 0.203034 0.00125 84
1 0.204395 0.222198 0.00206789 -0.00598781 -0.00166094 -0.0277203 0.00125 85
1 0.202407 0.234013 0.00141791 0.0145352 -0.0290212 0.117721 0.00125 86
1 0.0227972 0.22415 0.00131022 -0.0625283 -0.0266406 0.270136 0.00125 87
1 0.293426 0.240276 0.00173774 -0.00111525 0.0231502 -0.0499161 0.00125 88
1 0.294644 0.287868 0.00135731 0.00569994 -0.0249402 -0.232494 0.00125 89
1 0.196462 0.105032 0.00135456 0.0313417 0.0184892 -0.214425 0.00125 90
1 0.0185865 0.221943 0.00124178 0.00659508 0.0142854 0.22827 0.00125 91
1 0.17691 0.272274 0.00125191 -0.00792345 -0.0114827 -0.27546 0.00125 92
1 0.299953 0.144491 0.00138546 -0.00329466 0.0402049 0.174971 0.00125 93
1 0.276558 0.274122 0.00184237 -0.0679955 0.0238885 -0.106186 0.00125 94
1 0.0811472 0.0803788 0.00143649 -0.0260789 0.0347124 0.084092 0.00125 95
1 0.209611 0.282823 0.00197677 0.0205608 -0.0456258 -0.196422 0.00125 96
1 0.0108296 0.0383349 0.00131613 -0.0219954 -0.0232899 0.0100327 0.00125 97
1 0.0681908 0.137219 0.00244148 -0.0417375 -0.0150553 -0.0517315 0.00125 98
1 0.174887 0.0711296 0.00127438 -0.00278624 0.00434645 -0.221917 0.00125 99
1 0.182698 0.292607 0.00137736 -0.0335483 -0.023969 0.161139 0.00125 100
1 0.185599 0.0984747 0.00159176 -0.0360082 -0.00791006 -0.0722547 0.00125 101
1 0.0169027 0.264059 0.00155525 -0.037859 -0.0277333 -0.197058 0.00125 102
1 0.214794 0.206639 0.00149177 0.0306965 0.0516112 -0.199705 0.00125 103
1 0.108468 0.114529 0.00139998 0.0389669 -0.0193608 0.0916462 0.00125 104
1 0.0540991 0.0771635 0.00225135 -0.010749 0.00719658 -0.013621 0.00125 105
1 0.272364 0.289735 0.00164648 -0.00204636 0.0420276 -0.234958 0.00125 106
1 0.104925 0.117868 0.00126988 0.0493398 0.0436299 0.151959 0.00125 107
1 0.191261 0.115057 0.00179418 -0.0275296 -0.0106331 -0.20816 0.00125 108
1 0.162246 0.275618 0.00146845 0.0058234 0.0283048 0.199544 0.00125 109
1 0.305312 0.126366 0.00211162 0.00122112 0.0343322 -0.0253853 0.00125 110
1 0.0677945 0.145056 0.00162919 0.070014 -0.023329 -0.158691 0.00125 111
1 0.223546 0.200183 0.00161412 -0.00961185 0.0356608 0.113864 0.00125 112
1 0.060937 0.141482 0.00143248 -0.0178576 -0.0506831 0.245377 0.00125 113
1 0.232526 0.104099 0.00146867 -0.0352191 -0.0137992 -0.197916 0.00125 114
1 0.0904843 0.0561871 0.00133292 0.028969 0.0318111 0.0622658 0.00125 115
1 0.175804 0.230687 0.00135118 0.0136842 -0.00820469 0.191961 0.00125 116
1 0.23633 0.256208 0.00136401 -0.0216007 0.0102218 0.212882 0.00125 117
1 0.00304366 0.0573309 0.00213109 -0.0134801 0.00860411 -0.196177 0.00125 118
1 0.265326 0.0874324 0.00164093 0.0547925 0.0122683 -0.116603 0.00125 119
1 0.303473 0.0389237 0.00230583 -0.00647976 0.0463314 -0.0439901 0.00125 120
1 0.105952 0.121161 0.00126584 0.0376083 -0.000749679 -0.193324 0.00125 121
1 0.161996 0.145913 0.00154716 0.0457372 0.0902021 -0.213594 0.00125 122
1 0.29356 0.093403 0.00152628 -0.0273072 -0.00938755 -0.213809 0.00125 123
1 0.200477 0.175233 0.00216012 -0.0135561 -0.0178793 -0.0544429 0.00125 124
1 0.144568 0.271352 0.00225548 0.0265753 -0.0866599 -0.0186443 0.00125 125
1 0.105412 0.00577099 0.00178037 0.0234404 -0.035177 0.121671 0.00125 126
1 0.281904 0.189179 0.00160913 0.00255606 -0.0184323 -0.225265 0.00125 127
1 0.20958 0.220027 0.00127404 -0.0333855 -0.00292862 0.211148 0.00125 128
1 0.109188 0.147099 0.00130667 -0.0302449 -0.0187073 -0.0311751 0.00125 129
1 0.300121 0.148229 0.00145488 0.00391996 -0.0116368 0.16208 0.00125 130
1 0.0769887 0.118302 0.00157009 0.00119 -0.00980069 0.114564 0.00125 131
1 0.046581 0.180543 0.00246361 0.0147606 0.0471011 -0.0364191 0.00125 132
1 0.030162 0.254033 0.00154099 -0.0331271 -0.0527374 0.115015 0.00125 133
1 0.0141163 0.150334 0.00229351 -0.0217523 -0.0223591 -0.0502363 0.00125 134
1 0.0499475 0.134493 0.00159232 0.00231813 0.00884209 -0.185937 0.00125 135
1 0.198207 0.111729 0.00155632 -0.057703 0.00339754 0.0745857 0.00125 136
1 0.0460966 0.282408 0.00166288 0.0692812 0.0244182 -0.0398436 0.00125 137
1 0.124719 0.00426594 0.00170506 -0.0128421 -0.027619 -0.0821416 0.00125 138
1 0.249315 0.0157545 0.00175959 0.00964254 0.020456 -0.23539 0.00125 139
1 0.00128541 0.142529 0.00127151 -0.0162745 -0.0094486 0.0631115 0.00125 140
1 0.305302 0.112063 0.0015597 -0.0107057 -0.0124725 0.138559 0.00125 141
1 0.218376 0.148935 0.00222513 0.0448899 0.0306308 -0.0719783 0.00125 142
1 0.189478 0.264864 0.00178138 0.00305581 0.0245582 -0.0501039 0.00125 143
1 0.0623759 0.215634 0.00139631 0.0299102 -0.0484857 -0.172667 0.00125 144
1 0.149954 0.298619 0.00197912 -0.0266919 -0.000786939 -0.0355373 0.00125 145
1 0.147131 0.224504 0.0019996 0.00605587 0.00477258 -0.161539 0.00125 146
1 0.298354 0.0724713 0.00132111 -0.0367449 0.0338459 0.2094 0.00125 147
1 0.203831 0.00583508 0.00176466 -0.0298877 -0.0220913 0.129212 0.00125 148
1 0.244683 0.104237 0.00144575 -0.0131831 -0.0136088 0.147664 0.00125 149
1 0.0998379 0.0404402 0.00149804 -0.022838 0.0106722 -0.193998 0.00125 150
1 0.184583 0.299687 0.00133585 0.0716252 -0.0707161 0.0375869 0.00125 151
1 0.271779 0.0715289 0.0019985 0.0162776 0.00778515 -0.0671694 0.00125 152
1 0.0726175 0.0915218 0.00149581 -0.0198751 -0.0493505 0.114855 0.00125 153
1 0.0669379 0.243105 0.00155798 -0.0221457 0.0935712 -0.212618 0.00125 154
1 0.170553 0.152684 0.00125878 0.0045394 0.0332559 0.213206 0.00125 155
1 0.228685 0.0847914 0.00165557 0.0089187 0.0475436 0.110138 0.00125 156
1 0.060121 0.308768 0.00230621 0.0306068 0.0220311 -0.0547495 0.00125 157
1 0.105086 0.310326 0.00163317 -0.0278064 0.0024795 0.203326 0.00125 158
1 0.233773 0.10909 0.00139564 0.00359842 -0.0119772 -0.207564 0.00125 159
1 0.134054 0.066108 0.002311 -0.0161636 -0.0289436 0.0119789 0.00125 160
1 0.276024 0.0979581 0.0015538 0.0579201 -0.0350649 -0.175215 0.00125 161
1 0.25531 0.173029 0.00126997 0.0154277 0.0144619 -0.278691 0.00125 162
1 0.177568 0.240759 0.00230997 0.00836329 0.0276125 -0.0490076 0.00125 163
1 0.277453 0.160998 0.00219132 0.0778378 0.0190183 -0.0608932 0.00125 164
1 0.0879942 0.248219 0.00180409 0.0262151 -0.0282015 -0.225427 0.00125 165
1 0.0449242 0.301831 0.00123295 -0.00555575 -0.0288321 0.112854 0.00125 166
1 0.282903 0.0223739 0.00200484 0.0472379 0.0475588 -0.186869 0.00125 167
1 0.00224814 0.174641 0.00124643 -0.00823204 -0.0220181 -0.100318 0.00125 168
1 0.125629 0.214402 0.00137112 0.0140963 -0.0196218 -0.211434 0.00125 169
1 0.0534687 0.106125 0.00228379 0.0191646 -0.000664851 -0.0537579 0.00125 170
1 0.174334 0.0813385 0.00141053 -0.014295 -0.055081 -0.236885 0.00125 171
1 0.0687417 0.223154 0.00181326 -0.00437686 -0.012817 -0.165549 0.00125 172
1 0.138565 0.0743602 0.00155742 -0.072277 0.0222183 0.036972 0.00125 173
1 0.0844737 0.129502 0.00146346 0.0495082 0.0875962 0.11443 0.00125 174
1 0.0221022 0.263218 0.00206284 -0.0285054 0.0203131 -0.215808 0.00125 175
1 0.165286 0.179239 0.00176948 -0.0464756 0.0526226 -0.198339 0.00125 176
1 0.0336889 0.274742 0.0012916 -0.0347176 -0.052487 -0.0692534 0.00125 177
1 0.259864 0.126907 0.00128338 -0.029972 -0.00497634 0.183789 0.00125 178
1 0.302976 0.249774 0.00228629 -0.0564769 0.057625 -0.0142989 0.00125 179
1 0.268305 0.0331659 0.00127644 0.0522365 0.0131679 -0.260303 0.00125 180
1 0.177827 0.188021 0.00129501 0.0306713 -0.00665174 0.181703 0.00125 181
1 0.00751907 0.234787 0.00139014 0.0049752 -0.00842386 -0.248033 0.00125 182
1 0.244166 0.149813 0.00133113 0.0172442 -0.00889258 -0.0839716 0.00125 183
1 0.171557 0.234683 0.00127546 0.0113029 -0.0017071 0.21701 0.00125 184
1 0.0704697 0.108367 0.00217597 0.0240344 -0.00176116 -0.155862 0.00125 185
1 0.0150384 0.115993 0.00154726 0.0128257 -0.00750419 -0.18774 0.00125 186
1 0.153508 0.151376 0.00137137 0.0176569 -0.00231202 -0.268434 0.00125 187
1 0.207534 0.286426 0.00159177 -0.0781559 0.109166 -0.17605 0.00125 188
1 0.135514 0.206074 0.00203572 -0.00261114 -0.0130608 -0.0436525 0.00125 189
1 0.0539475 0.0134396 0.00182479 0.0374652 -0.0589315 -0.0281655 0.00125 190
1 0.133382 0.0919219 0.00142441 -0.0349521 0.00339743 -0.098222 0.00125 191
1 0.23763 0.277357 0.00161342 -0.0228677 -0.0119151 0.0853401 0.00125 192
1 0.20934 0.123585 0.00142987 -0.0136733 -0.0107027 0.174284 0.00125 193
1 0.0640363 0.232525 0.0016016 0.00534563 -0.0501395 -0.0912074 0.00125 194
1 0.185972 0.140068 0.0012876 -0.0260541 -0.0305601 -0.0570096 0.00125 195
1 0.0232097 0.269742 0.00128577 -0.0358721 -0.00579938 -0.223357 0.00125 196
1 0.0359833 0.0902953 0.00135943 0.00110127 -0.011486 -0.0178798 0.00125 197
1 0.0952103 0.246905 0.00165939 -0.0441634 0.0196527 -0.230376 0.00125 198
1 0.0845126 0.194333 0.00236846 0.0310012 -0.0660819 0.0195575 0.00125 199
1 0.242676 0.24608 0.00170391 0.0405553 -0.0517674 -0.150275 0.00125 200
1 0.238944 0.280051 0.00135555 -0.0384117 0.012222 0.129312 0.00125 201
1 0.126123 0.169094 0.00140113 0.0186875 0.023576 -0.191565 0.00125 202
1 0.199023 0.214092 0.0012409 0.0362733 -0.00545643 -0.213613 0.00125 203
1 0.225667 0.27853 0.00196938 0.0832133 -0.0807612 -0.0980321 0.00125 204
1 0.148824 0.0132116 0.00141629 0.0355063 0.0388517 -0.234658 0.00125 205
1 0.140642 0.240608 0.00143263 -0.036582 0.112337 -0.192925 0.00125 206
1 0.18975 0.234567 0.00172324 -0.041563 -0.0123825 -0.062256 0.00125 207
1 0.0714814 0.0290365 0.00156763 0.00967374 -0.00962609 0.145654 0.00125 208
1 0.277387 0.184599 0.00134207 -0.0183733 0.00321468 0.167671 0.00125 209
1 0.198991 0.0879966 0.00191959 0.0104678 -0.0113983 -0.206143 0.00125 210
1 0.140296 0.275221 0.00214223 -0.0884142 0.0360528 -0.0854584 0.00125 211
1 0.203916 0.0719655 0.00169126 -0.0184017 -0.0311102 -0.203533 0.00125 212
1 0.0321504 0.0989134 0.001335 0.0100683 0.00487024 0.0238179 0.00125 213
1 0.00635224 0.268702 0.0013048 -0.0221476 -0.00818379 -0.204924 0.00125 214
1 0.0582173 0.268619 0.0013465 0.0156358 0.0301616 0.215514 0.00125 215
1 0.0274652 0.16778 0.00139804 -0.00128334 -0.00954108 -0.238288 0.00125 216
1 0.211023 0.0724811 0.00248211 -0.00554052 -0.0108943 -0.0662825 0.00125 217
1 0.13792 0.215284 0.0020637 0.0748986 -0.0803688 -0.00549876 0.00125 218
1 0.154806 0.308542 0.00148405 -0.0220469 -0.00566871 -0.292936 0.00125 219
1 0.126824 0.140361 0.00123834 -0.017078 0.00231064 0.0269481 0.00125 220
1 0.223241 0.212997 0.00133099 0.0461263 0.00885544 0.194049 0.00125 221
1 0.189818 0.211615 0.00137352 0.0224989 0.0479923 -0.266186 0.00125 222
1 0.156385 0.187386 0.0013501 0.0263243 0.00478554 -0.248566 0.00125 223
1 0.0695439 0.0897304 0.00151135 -0.0369326 0.023308 0.126107 0.00125 224
1 0.0228415 0.0120138 0.00143757 0.0117445 -0.000422749 -0.22203 0.00125 225
1 0.0609071 0.0642142 0.0013717 -0.0369066 0.0250973 -0.187876 0.00125 226
1 0.0899398 0.166113 0.00125152 0.00406875 -0.0473955 -0.238636 0.00125 227
1 0.297025 0.292449 0.00229433 -0.00288396 -0.0455232 -0.0559101 0.00125 228
1 0.0290624 0.304203 0.00127986 0.0104811 0.00321835 -0.235311 0.00125 229
1 0.0475191 0.111531 0.00194185 0.0161003 -0.0474363 -0.0699177 0.00125 230
1 0.170168 0.200519 0.00246821 0.0411316 -0.00920324 -0.0444687 0.00125 231
1 0.21808 0.275096 0.00159869 -0.032851 0.00169028 -0.0750874 0.00125 232
1 0.0566574 0.308631 0.00123535 0.0187733 0.0127139 0.185565 0.00125 233
1 0.203897 0.282083 0.00123287 -0.0189764 0.0126328 -0.137406 0.00125 234
1 0.0347199 0.257249 0.00157251 0.0127461 -0.0114782 -0.259024 0.00125 235
1 0.222211 0.129023 0.00220285 -0.0392646 -0.0450516 -0.051296 0.00125 236
1 0.118537 0.274844 0.0014508 0.0411293 0.0251988 -0.0862912 0.00125 237
1 0.164819 0.0873975 0.00214898 -0.00458912 -0.0289818 -0.0396031 0.00125 238
1 0.216732 0.230692 0.00170778 0.0209515 -0.00552451 -0.243742 0.00125 239
1 0.211272 0.15862 0.00237646 -0.0095723 0.00550272 -0.104539 0.00125 240
1 0.111086 0.189102 0.00130119 0.0515403 0.0157927 -0.195606 0.00125 241
1 0.0468867 0.204392 0.00128258 0.0287721 0.0257549 0.186525 0.00125 242
1 0.252623 0.112207 0.00153704 0.00465628 0.0166043 -0.219745 0.00125 243
1 0.257857 0.283733 0.00130663 -0.047916 0.0772917 0.160094 0.00125 244
1 0.140516 0.0439334 0.00171338 0.0828473 -0.0181311 -0.253551 0.00125 245
1 0.147444 0.187761 0.00124264 0.0284142 -0.0383737 0.11563 0.00125 246
1 0.0590436 0.219685 0.00128428 -0.0250043 0.0769561 -0.21133 0.00125 247
1 0.116806 0.116369 0.00157727 0.0306115 -0.0236531 -0.192206 0.00125 248
1 0.195238 0.22941 0.00159052 0.000885094 0.0142047 0.107127 0.00125 249
1 0.274858 0.0262548 0.00143567 0.00189734 -0.0384083 -0.22982 0.00125 250
1 0.0561792 0.102383 0.0022416 -0.0447115 -0.0560541 -0.0683779 0.00125 251
1 0.156559 0.275582 0.00213523 -0.00702182 -0.00604302 -0.195153 0.00125 252
1 0.0272807 0.289066 0.00239073 -0.00860576 0.0599415 -0.0600523 0.00125 253
1 0.175463 0.0346122 0.00128623 -0.0323313 -0.00650372 0.192084 0.00125 254
1 0.0309181 0.203873 0.00154893 -0.0102405 -0.0107375 -0.237936 0.00125 255
1 0.239167 0.221614 0.00186837 -0.00538004 -0.0417066 -0.0346845 0.00125 256
1 0.198267 0.1605 0.00170101 0.0155469 0.0189846 -0.235437 0.00125 257
1 0.181503 0.10116 0.00194739 -0.00433116 0.0116202 -0.194564 0.00125 258
1 0.292602 0.0735729 0.00220659 0.00672808 -0.0004507 -0.0461625 0.00125 259
1 0.128839 0.0688648 0.0014451 -0.0152947 0.0219714 0.117349 0.00125 260
1 0.0209525 0.279284 0.0014703 0.0107172 -0.0416664 0.228053 0.00125 261
1 0.105456 0.150123 0.00140266 -0.0445253 -0.0121376 -0.272534 0.00125 262
1 0.14297 0.142108 0.00143805 -0.0175528 -0.00815442 0.159826 0.00125 263
1 0.20365 0.268416 0.00134089 0.00133077 -0.00973732 -0.212711 0.00125 264
1 0.218177 0.146145 0.00147737 -0.123348 -0.0526096 -0.234923 0.00125 265
1 0.244592 0.242495 0.00201695 0.0927309 -0.00344304 -0.155734 0.00125 266
1 0.000597961 0.0420592 0.00129212 -0.019534 -0.0375847 -0.217512 0.00125 267
1 0.156932 0.106686 0.00125311 0.0729931 -0.0601179 0.24471 0.00125 268
1 0.0535835 0.272994 0.00140534 0.0049004 0.0283976 -0.230068 0.00125 269
1 0.252001 0.276012 0.00213411 0.0482574 -0.02845 -0.0638808 0.00125 270
1 0.124048 0.170765 0.00142344 -0.0326288 -0.0667603 0.128578 0.00125 271
1 0.0880554 0.241027 0.00187065 -0.0307115 -0.0500508 -0.228227 0.00125 272
1 0.127541 0.239686 0.00172051 0.031261 0.0185041 0.134832 0.00125 273
1 0.3014 0.179211 0.00136608 -0.0251151 0.00640647 0.247318 0.00125 274
1 0.0282403 0.2479 0.00191294 -0.0135972 0.00852824 -0.136204 0.00125 275
1 0.209418 0.217342 0.00124218 -0.0676148 -0.0804997 -0.207149 0.00125 276
1 0.213778 0.00618477 0.00148376 -0.0376883 -0.117661 -0.0766683 0.00125 277
1 0.0913983 0.117224 0.00184681 -0.0137114 -0.000513669 -0.0909684 0.00125 278
1 0.303411 0.108984 0.00191202 -0.0214235 -0.0463394 -0.203435 0.00125 279
1 0.231228 0.0852436 0.00161444 0.00579867 0.00629854 -0.233041 0.00125 280
1 0.0431399 0.10128 0.00136512 -0.048861 -0.00172384 -0.235778 0.00125 281
1 0.196203 0.258805 0.00137716 0.0184079 0.0241207 -0.262711 0.00125 282
1 0.153316 0.138877 0.00243387 0.0159279 0.0159163 0.0180548 0.00125 283
1 0.0873111 0.0922704 0.00133132 -0.0148299 0.0035413 0.199362 0.00125 284
1 0.189108 0.147279 0.0014275 -0.0999491 -0.0108662 -0.203846 0.00125 285
1 0.116901 0.0712549 0.00144823 -0.0352531 0.0258639 0.170404 0.00125 286
1 0.190247 0.0182146 0.00205448 0.0220353 0.00604479 -0.0161066 0.00125 287
1 0.0840817 0.028035 0.0019605 -0.0816664 -0.0691109 -0.133774 0.00125 288
1 0.0512003 0.230783 0.00164135 0.0149405 0.110444 -0.128004 0.00125 289
1 0.241192 0.305771 0.00161179 0.046016 -0.0413482 -0.166048 0.00125 290
1 0.102721 0.11301 0.00127793 0.00269796 0.0290668 -0.16134 0.00125 291
1 0.231198 0.076033 0.00181975 0.0254698 -0.0132045 -0.158436 0.00125 292
1 0.0622408 0.0890705 0.001458 -0.019228 0.0516095 0.150452 0.00125 293
1 0.070636 0.105756 0.00154102 -0.0258858 0.0339515 -0.112535 0.00125 294
1 0.0968408 0.0890805 0.00214367 -0.0365271 -0.0324962 -0.0286893 0.00125 295
1 0.114987 0.118687 0.00200623 -0.00483642 -0.0425607 -0.186499 0.00125 296
1 0.272172 0.182721 0.00131777 0.00176217 -0.10996 0.13272 0.00125 297
1 0.156374 0.273048 0.00135055 -0.0192246 0.0324217 0.13882 0.00125 298
1 0.101412 0.079284 0.00145009 0.0182708 0.000873899 0.205729 0.00125 299
1 0.117993 0.216768 0.00141021 0.0174662 0.0222261 0.219465 0.00125 300
1 0.193146 0.023705 0.00171682 0.0139523 0.00645097 -0.225247 0.00125 301
1 0.111308 0.225667 0.00171303 -0.00789794 0.0602184 -0.197372 0.00125 302
1 0.0507988 0.0390538 0.00198076 -0.0455431 -0.085244 -0.196044 0.00125 303
1 0.199577 0.0968355 0.00149608 0.00935312 0.0323506 -0.171829 0.00125 304
1 0.273482 0.275165 0.00140085 -0.00372666 -0.0392798 0.216701 0.00125 305
1 0.0344376 0.137957 0.00134043 -0.0176323 0.0136601 0.170574 0.00125 306
1 0.0702076 0.204861 0.00146245 0.0265822 -0.0329741 -0.225952 0.00125 307
1 0.199336 0.254538 0.00145312 0.0622057 0.0224151 -0.242362 0.00125 308
1 0.102819 0.145005 0.00138299 -0.0128622 -0.0238993 -0.128641 0.00125 309
1 0.263155 0.250749 0.00127574 0.0426899 -0.0329454 -0.234727 0.00125 310
1 0.263934 0.126945 0.00133671 -0.014357 -0.0277643 0.230558 0.00125 311
1 0.275923 0.0408281 0.00134208 -0.00209509 -0.0311583 -0.294464 0.00125 312
1 0.21396 0.221744 0.00128011 -0.0273038 -0.0342066 0.0464238 0.00125 313
1 0.0640457 0.219437 0.00171245 0.114253 0.0383306 -0.237384 0.00125 314
1 0.230425 0.274696 0.00137552 0.0482621 0.0776181 0.150879 0.00125 315
1 0.0237182 0.196836 0.00152417 0.0122238 -0.0106246 -0.235376 0.00125 316
1 0.0708701 0.0201755 0.00137687 0.0422014 -0.0277911 -0.267537 0.00125 317
1 0.267237 0.0114398 0.00132319 0.00540916 -0.0154019 -0.116771 0.00125 318
1 0.195328 0.0916066 0.00140193 0.0351024 0.00867462 0.170287 0.00125 319
1 0.241126 0.067269 0.0015119 0.0133572 -0.00321606 0.114434 0.00125 320
1 0.21143 0.0362274 0.0013876 0.00662151 0.026261 -0.226879 0.00125 321
1 0.116341 0.177161 0.00183862 -0.0285365 -0.00955067 -0.0513847 0.00125 322
1 0.234905 0.205669 0.00158286 -0.0174724 -0.0360003 0.124939 0.00125 323
1 0.15009 0.217245 0.00178651 0.00425428 0.0345535 -0.221756 0.00125 324
1 0.113882 0.270416 0.00134569 0.0217786 -0.0117532 0.149564 0.00125 325
1 0.148004 0.177596 0.00142305 0.0131391 -0.019699 -0.236791 0.00125 326
1 0.109603 0.201304 0.00128209 0.020789 -0.00578096 -0.221359 0.00125 327
1 0.246926 0.262736 0.00157742 0.00259158 0.0289026 -0.247575 0.00125 328
1 0.220746 0.104134 0.00125392 0.0353411 -0.0167006 0.213947 0.00125 329
1 0.0267454 0.0915282 0.00124111 0.0190059 0.00540556 -0.0828493 0.00125 330
1 0.0701805 0.241595 0.00186086 -0.030095 -0.0569235 -0.196334 0.00125 331
1 0.189728 0.132192 0.00134529 0.00564729 0.00873078 0.0425257 0.00125 332
1 0.0456214 0.310814 0.00124745 -0.121649 0.015747 0.0420155 0.00125 333
1 0.0816406 0.184552 0.00125203 -0.054374 0.0754858 0.0562347 0.00125 334
1 0.231713 0.014731 0.00228339 -0.000837693 0.0149157 -0.0307372 0.00125 335
1 0.152081 0.300421 0.00234249 0.0473807 0.0161982 -0.0369897 0.00125 336
1 0.205138 0.0101779 0.00125814 0.0156152 0.0316011 -0.0185845 0.00125 337
1 0.204445 0.25551 0.00191986 0.0451758 -0.035944 -0.0717582 0.00125 338
1 0.279865 0.208378 0.00174161 -0.00382267 -0.00494764 -0.255826 0.00125 339
1 0.223491 0.195074 0.00208582 0.00369321 0.03866 -0.194839 0.00125 340
1 0.284817 0.0351804 0.00122983 -0.0014641 -0.0190653 0.0435701 0.00125 341
1 0.0481927 0.108585 0.00124216 0.00178599 0.0170748 0.189988 0.00125 342
1 0.224419 0.0502529 0.0016694 0.00422842 -0.0179574 0.0854651 0.00125 343
1 0.184109 0.0568843 0.00200766 -0.0629431 0.0622724 -0.128034 0.00125 344
1 0.154438 0.178407 0.0014383 -0.0212589 0.0145663 -0.219022 0.00125 345
1 0.0696063 0.184065 0.00152633 -0.0206637 -0.0102513 -0.2742 0.00125 346
1 0.282331 0.073368 0.00157184 -0.0305848 -0.0435346 -0.210559 0.00125 347
1 0.215365 0.14113 0.00133059 0.0134164 -0.00504238 0.190976 0.00125 348
1 0.263012 0.148546 0.0014784 -0.0245845 0.00357231 0.156365 0.00125 349
1 0.0648174 0.155894 0.00180997 -0.00256684 -0.0973186 -0.169926 0.00125 350
1 0.223077 0.0730128 0.00247963 0.00713639 0.0193116 -0.036698 0.00125 351
1 0.16062 0.253298 0.00161735 0.0327229 0.00561151 -0.194371 0.00125 352
1 0.0614938 0.0733421 0.00124034 -0.01221 -0.0213452 0.0377301 0.00125 353
1 0.218444 0.122861 0.00130214 -0.0114688 0.00776056 0.191298 0.00125 354
1 0.202032 0.165632 0.00131267 -0.00852004 0.0230058 0.218972 0.00125 355
1 0.240362 0.151854 0.00243686 -0.016974 -0.00466657 -0.0108218 0.00125 356
1 0.209486 0.148119 0.00174606 0.0212326 0.018489 0.114284 0.00125 357
1 0.163144 0.216582 0.00242056 0.0109706 -0.0516015 -0.0948453 0.00125 358
1 0.00151475 0.309761 0.00231778 0.0140222 -0.0310756 -0.0398351 0.00125 359
1 0.0966418 0.202731 0.00168379 -0.0381432 0.0167109 0.0790125 0.00125 360
1 0.085342 0.26072 0.00127676 -0.0260682 -0.102646 0.192522 0.00125 361
1 0.166946 0.231111 0.00181308 0.0414485 0.0493637 -0.205499 0.00125 362
1 0.298437 0.286591 0.00181764 -0.00294903 0.0178369 -0.0836812 0.00125 363
1 0.0422274 0.0455308 0.00136508 0.0115658 0.0478508 -0.198772 0.00125 364
1 0.150017 0.106145 0.00175906 0.00172456 0.0056371 -0.0656819 0.00125 365
1 0.0462551 0.0501449 0.00141491 0.00146348 0.0705904 -0.242673 0.00125 366
1 0.11447 0.109832 0.00196373 -0.0545374 0.0165923 -0.0800241 0.00125 367
1 0.0981152 0.224785 0.00124986 0.0728852 0.0443593 -0.251237 0.00125 368
1 0.245935 0.199868 0.00169002 0.0100469 0.0550587 0.156637 0.00125 369
1 0.139793 0.30821 0.00141022 0.0547753 -0.0945968 0.0608049 0.00125 370
1 0.0462781 0.0304096 0.00137403 0.0395626 -0.045292 0.117122 0.00125 371
1 0.149882 0.0155122 0.00160528 -0.0199987 0.0104283 0.143026 0.00125 372
1 0.295011 0.280218 0.00152765 -0.017271 0.0211796 -0.263025 0.00125 373
1 0.281114 0.0820646 0.00243847 -0.0373036 0.0117354 -0.0803692 0.00125 374
1 0.0630661 0.277901 0.00158191 -0.0325942 0.0174281 -0.186655 0.00125 375
1 0.220894 0.182742 0.0024868 -0.00243624 -0.00209623 -0.0540739 0.00125 376
1 0.179504 0.120215 0.00128534 0.0425504 0.00156187 0.2351 0.00125 377
1 0.202573 0.259135 0.00151442 0.0173583 -0.0127511 -0.217838 0.00125 378
1 0.0693744 0.152755 0.0021053 -0.0718263 0.0219007 -0.129617 0.00125 379
1 0.211202 0.243017 0.00129435 -0.0285972 0.0150465 -0.262373 0.00125 380
1 0.152384 0.124427 0.00130146 -0.0257221 -0.0186756 -0.107213 0.00125 381
1 0.138191 0.0356415 0.00131558 -0.0232262 0.000854214 -0.22087 0.00125 382
1 0.0134717 0.0861632 0.00130668 -0.0648128 -0.0116092 -0.276611 0.00125 383
1 0.219002 0.295068 0.00177638 -0.00545429 -0.0147587 -0.207697 0.00125 384
1 0.179369 0.176953 0.00195907 0.0402099 0.00675939 -0.0457127 0.00125 385
1 0.0223344 0.0457742 0.00155697 -0.0062245 0.0269213 0.107338 0.00125 386
1 0.0688154 0.0815027 0.00174934 0.00783153 0.0161777 -0.225956 0.00125 387
1 0.214517 0.0367808 0.00230739 -0.00510602 0.0264821 -0.155509 0.00125 388
1 0.0153506 0.200056 0.00157204 -0.0344621 -0.0378326 0.0395315 0.00125 389
1 0.0702846 0.0138852 0.001347 -0.00318688 -0.00594781 -0.228741 0.00125 390
1 0.0633737 0.263285 0.00135112 0.0433107 0.00709056 0.136404 0.00125 391
1 0.0952613 0.0980368 0.0022334 0.0237074 0.0554876 -0.00691427 0.00125 392
1 0.0810687 0.289606 0.00165504 -0.032611 -0.0732696 0.0778195 0.00125 393
1 0.00866244 0.261834 0.00211519 0.0117287 0.0156763 -0.170217 0.00125 394
1 0.159201 0.0684523 0.00245532 0.0111544 0.00540652 -0.0685816 0.00125 395
1 0.202774 0.306026 0.00147008 0.00650187 0.0331499 -0.230222 0.00125 396
1 0.0477082 0.0898921 0.00141141 0.0777314 -0.0130788 -0.198748 0.00125 397
1 0.0139816 0.285209 0.00184288 -0.00521171 -0.0498109 -0.13571 0.00125 398
1 0.160807 0.0367956 0.00133095 -0.0150501 0.0685524 0.0567986 0.00125 399
1 0.258987 0.180638 0.00174804 0.0346995 -0.0492571 0.123604 0.00125 400