ITEM: TIMESTEP
1000000
ITEM: NUMBER OF ATOMS
10000
ITEM: BOX BOUNDS pp pp ff
0.0000000000000000e+00 3.1343880875000002e-01
0.0000000000000000e+00 3.1343880875000002e-01
-1.2500000000000001e-02 1.2500000000000001e-02
ITEM: ATOMS type x y z vx vy vz radius id
1 0.262221 0.250006 0.00126543 -0.00534068 0.00268179 -0.230416 0.00125 1
1 0.0792856 0.252442 0.00198338 -0.00306268 0.017845 -0.203165 0.00125 2
1 0.0262736 0.236775 0.00133588 0.00647119 -0.0111208 -0.237809 0.00125 3
1 0.0304161 0.16891 0.00134375 0.000352573 0.0155435 0.177559 0.00125 4
1 0.19565 0.188961 0.00131683 0.0302597 -0.0132053 -0.201541 0.00125 5
1 0.267115 0.102403 0.00151777 -0.037866 0.0320361 -0.109521 0.00125 6
1 0.050596 0.272082 0.00141989 -0.00326129 -0.0396622 -0.219961 0.00125 7
1 0.0258387 0.03169 0.00236923 -0.0055509 -0.0357502 0.0294665 0.00125 8
1 0.0790265 0.260785 0.00155106 -0.0341995 -0.0196305 -0.0574139 0.00125 9
1 0.125485 0.0474931 0.00167047 0.0065831 -0.00827748 -0.210493 0.00125 10
1 0.253911 0.108426 0.00167691 0.0324918 0.100771 -0.169452 0.00125 11
1 0.0953024 0.313395 0.0014804 0.0702314 -0.115878 0.0215803 0.00125 12
1 0.181263 0.27062 0.00239473 0.00816136 -0.00435342 -0.119269 0.00125 13
1 0.19604 0.226447 0.00135846 0.00777914 0.0136484 0.177993 0.00125 14
1 0.226431 0.135251 0.00132251 0.00412471 0.0018125 0.188832 0.00125 15
1 0.248336 0.0729031 0.00190902 -0.0223598 -0.0236149 -0.0560641 0.00125 16
1 0.234741 0.209567 0.00202647 0.0658819 0.0431402 -0.186767 0.00125 17
1 0.0841998 0.294022 0.00228314 -0.00848644 -0.0104019 0.000527252 0.00125 18
1 0.224854 0.305903 0.00177209 -0.0488371 0.042554 -0.0755569 0.00125 19
1 0.103209 0.273739 0.00130649 -0.0305951 -0.0670905 -0.195399 0.00125 20
1 0.124621 0.0785162 0.00129494 0.0528643 -0.0225538 -0.242748 0.00125 21
1 0.0845412 0.105959 0.002021 -0.0187397 0.0293824 -0.0421528 0.00125 22
1 0.300627 0.0438688 0.00134759 0.00919499 0.0188117 -0.310885 0.00125 23
1 0.298184 0.145598 0.0017152 0.0203661 0.0337952 -0.195967 0.00125 24
1 0.0415601 0.270096 0.0020029 -0.0277482 -0.0231496 -0.0617534 0.00125 25
1 0.0681377 0.144745 0.00244086 0.0249957 0.0018388 -0.0559365 0.00125 26
1 0.146821 0.0835827 0.00208996 -0.00355319 -0.0139516 -0.00839034 0.00125 27
1 0.111948 0.194622 0.00130804 -0.00242784 0.0185406 -0.218938 0.00125 28
1 0.11533 0.135884 0.00125796 -0.0150969 -0.014977 -0.212323 0.00125 29
1 0.127819 0.297829 0.001254 -0.00174446 -0.0193111 -0.214196 0.00125 30
1 0.0934278 0.199053 0.00142306 0.000864363 -0.0109723 -0.224258 0.00125 31
1 0.100704 0.175201 0.00156807 0.00761365 0.0256035 -0.184207 0.00125 32
1 0.141661 0.233927 0.00129923 -0.0197496 7.19066e-05 -0.250862 0.00125 33
1 0.286366 0.0827157 0.00157032 -0.0437435 -0.00250622 -0.250815 0.00125 34
1 0.173868 0.224451 0.00217816 0.00555646 -0.013447 -0.150508 0.00125 35
1 0.183404 0.0876248 0.00214609 -0.0496186 0.0173502 0.00898412 0.00125 36
1 0.179693 0.0876988 0.00146172 0.0121505 0.0099425 0.13081 0.00125 37
1 0.274687 0.148512 0.00140102 -0.0365902 -0.000542228 0.146473 0.00125 38
1 0.246831 0.294464 0.00240486 -0.0102948 0.009061 -0.0230572 0.00125 39
1 0.145726 0.142268 0.00131176 -0.00124925 0.0286848 -0.220861 0.00125 40
1 0.143357 0.182886 0.0015604 0.0274141 0.00968792 0.224517 0.00125 41
1 0.302363 0.0542893 0.00155606 0.00536268 -0.0665121 -0.185428 0.00125 42
1 0.114758 0.234605 0.00191645 -0.043314 -0.0681567 -0.211948 0.00125 43
1 0.286897 0.12444 0.00132602 -0.00165925 -0.0712347 0.0991332 0.00125 44
1 0.0759391 0.130434 0.00142024 -0.0243868 0.0381886 -0.107551 0.00125 45
1 0.216036 0.250008 0.00241517 0.00106624 0.0141496 -0.0329855 0.00125 46
1 0.254497 0.215173 0.00133975 0.0233883 0.0315496 0.26586 0.00125 47
1 0.282944 0.218761 0.00134812 0.0100569 -0.0238346 0.140973 0.00125 48
1 0.140787 0.216521 0.0012967 0.00964062 -0.0989969 0.01628 0.00125 49
1 0.057638 0.183899 0.00207142 0.0849148 -0.0423478 -0.0750332 0.00125 50
1 0.0214952 0.0424866 0.00135905 0.0288707 0.00774904 0.196015 0.00125 51
1 0.292043 0.301511 0.001281 -0.0362504 0.0190423 0.179007 0.00125 52
1 0.0653927 0.120216 0.00198482 -0.0411699 -0.0444675 -0.0578318 0.00125 53
1 0.208564 0.145925 0.00146098 0.0138857 -0.0148536 0.223912 0.00125 54
1 0.30126 0.0881075 0.0014005 -0.0140415 0.00298038 -0.245962 0.00125 55
1 0.209515 0.051217 0.00127647 0.0570256 0.0256981 0.109392 0.00125 56
1 0.0837734 0.2443 0.00155594 0.0240749 0.0305179 -0.175009 0.00125 57
1 0.201997 0.176579 0.00148825 0.0107323 -0.0256385 0.103523 0.00125 58
1 0.169225 0.0751051 0.00134525 -0.031251 0.00326269 0.134901 0.00125 59
1 0.00460348 0.183833 0.00183116 0.0112747 0.0138275 -0.210723 0.00125 60
1 0.153203 0.0378082 0.0014236 0.0137 0.013835 0.229318 0.00125 61
1 0.264757 0.00856297 0.00136101 0.0258287 0.0121314 0.155249 0.00125 62
1 0.204761 0.0930854 0.00147072 -0.0202852 0.00310054 -0.245952 0.00125 63
1 0.290533 0.288422 0.00127135 -0.0411504 -0.02409 0.00738609 0.00125 64
1 0.0252109 0.0210824 0.00145727 -0.0202954 -0.0404199 -0.254944 0.00125 65
1 0.249695 0.301593 0.00129522 -0.00865616 0.00220719 0.170707 0.00125 66
1 0.136374 0.121115 0.00132963 -0.00814949 0.00798026 -0.302447 0.00125 67
1 0.232675 0.203194 0.00203525 -0.0409342 0.115781 -0.0590636 0.00125 68
1 0.0720544 0.0883739 0.00150459 0.0439323 -0.00274418 -0.0904162 0.00125 69
1 0.0428508 0.0544683 0.00174387 0.000201232 0.016768 -0.223891 0.00125 70
1 0.220872 0.127752 0.00252357 -0.00587085 -0.00132951 0.0127566 0.00125 71
1 0.165413 0.280316 0.0016436 -0.0139454 -0.0276474 0.103932 0.00125 72
1 0.0151204 0.277166 0.00139654 0.0128255 0.0297354 -0.206498 0.00125 73
1 0.18439 0.293691 0.00135902 -0.00553204 0.0246994 0.174243 0.00125 74
1 0.292417 0.290769 0.00242648 0.0638122 -0.0417481 -0.0165272 0.00125 75
1 0.107463 0.0419556 0.00161242 -0.0047548 0.0225556 -0.164919 0.00125 76
1 0.09237 0.311312 0.00128982 -0.0278083 -0.00288084 0.199376 0.00125 77
1 0.0186999 0.145655 0.00151058 -0.0165752 -0.00721487 0.144305 0.00125 78
1 0.108283 0.21925 0.00122974 0.00395765 0.00886233 0.0536996 0.00125 79
1 0.0898927 0.034008 0.00125633 0.0228247 0.0120716 -0.0541 0.00125 80
1 0.0345817 0.178213 0.00197827 -0.037523 -0.00598938 -0.0908162 0.00125 81
1 0.0877694 0.254576 0.00161672 0.0486863 -0.0143699 0.0214188 0.00125 82
1 0.13721 0.186191 0.0014365 0.00941916 0.0102842 -0.295344 0.00125 83
1 0.140924 0.261929 0.00141508 -0.00166386 -0.0175879 0.170426 0.00125 84
1 0.278091 0.113839 0.002223 -0.0301637 -0.0396788 -0.00227434 0.00125 85
1 0.119739 0.163701 0.00145366 0.00975771 0.0198757 -0.110331 0.00125 86
1 0.131177 0.133649 0.00194299 0.0105666 -0.0424725 -0.185563 0.00125 87
1 0.294292 0.166372 0.00142741 0.00212517 0.00347031 0.226945 0.00125 88
1 0.0352656 0.0929068 0.00161932 -0.00881677 0.0014429 -0.230387 0.00125 89
1 0.181245 0.143591 0.00225908 0.0456819 0.0727241 -0.139838 0.00125 90
1 0.10925 0.127053 0.00176907 0.0196918 -0.015715 0.0895045 0.00125 91
1 0.121149 0.211269 0.00133184 -0.038939 0.0539795 -0.203061 0.00125 92
1 0.203396 0.115809 0.00141401 0.0222078 -0.0311096 -0.289637 0.00125 93
1 0.0199568 0.0253325 0.00133982 0.0417531 -0.0381078 0.115532 0.00125 94
1 0.186245 0.183332 0.00141958 0.0547942 -3.72714e-05 0.217218 0.00125 95
1 0.0578872 0.282256 0.00135686 0.0305378 -0.0480908 0.231343 0.00125 96
1 0.257235 0.294857 0.00235827 0.00924813 0.0105396 -0.120375 0.00125 97
1 0.286438 0.279336 0.00127813 0.000677867 -0.0415293 0.222379 0.00125 98
1 0.211835 0.077328 0.00145774 0.0299518 -0.0287708 0.102885 0.00125 99
1 0.0992404 0.30758 0.00146285 -0.0117937 -0.0126122 -0.201358 0.00125 100
1 0.0140124 0.0433113 0.00127204 -0.00359367 0.0365924 -0.262401 0.00125 101
1 0.067642 0.234447 0.00169783 0.00551527 -0.0239274 -0.224117 0.00125 102
1 0.0890212 0.271584 0.00209871 -0.0405639 -0.0207873 -0.141667 0.00125 103
1 0.302972 0.046893 0.00158044 0.00656382 -0.0129478 -0.107369 0.00125 104
1 0.00508924 0.114171 0.00186512 0.0121639 -0.01818 -0.0904076 0.00125 105
1 0.132234 0.264127 0.00156253 0.0380052 0.0508691 -0.202606 0.00125 106
1 0.0228359 0.116813 0.00220404 0.0138915 -0.0059805 -0.183563 0.00125 107
1 0.222657 0.225757 0.00124127 0.0124376 -0.0255706 -0.267445 0.00125 108
1 0.156435 0.0842259 0.00164241 -0.00390456 0.034999 -0.198855 0.00125 109
1 0.0145523 0.0308583 0.00181009 0.034149 0.00678099 -0.0460166 0.00125 110
1 0.0889653 0.20549 0.00215521 0.0144564 0.012703 -0.0429784 0.00125 111
1 0.246006 0.0239648 0.00131638 -0.0208086 -0.128754 0.0776146 0.00125 112
1 0.153558 0.195697 0.00157856 -0.0331264 -0.0163846 0.159439 0.00125 113
1 0.207178 0.0834182 0.00137103 -0.0355289 0.0232927 -0.255734 0.00125 114
1 0.225815 0.16562 0.00150308 0.0125651 0.0213025 -0.232534 0.00125 115
1 0.308202 0.300969 0.00152534 0.00691537 0.019353 -0.285412 0.00125 116
1 0.298145 0.0255368 0.00168062 0.0800462 -0.0163215 -0.256375 0.00125 117
1 0.198682 0.283689 0.00173176 -0.0777531 0.0279898 -0.171888 0.00125 118
1 0.0501387 0.112605 0.00182314 -0.0382118 0.0140729 -0.0300035 0.00125 119
1 0.127882 0.279201 0.00237516 -0.0197751 0.0181374 -0.132635 0.00125 120
1 0.146411 0.287095 0.00202098 -0.0137865 -0.0298575 -0.0934615 0.00125 121
1 0.283367 0.171234 0.00129005 -0.0134498 0.011214 0.022059 0.00125 122
1 0.143748 0.124847 0.00137373 0.0102868 0.0312753 0.1636 0.00125 123
1 0.00284021 0.312176 0.00154173 -0.0656205 -0.130914 -0.0803355 0.00125 124
1 0.178843 0.276244 0.00135011 0.0183829 -0.0777112 0.0769376 0.00125 125
1 0.227604 0.225413 0.00192893 -0.0244633 0.0518458 -0.152504 0.00125 126
1 0.0487224 0.177178 0.00154475 -0.0104407 -0.00123887 -0.187882 0.00125 127
1 0.116426 0.240261 0.00129143 0.00836998 0.0399005 0.0234739 0.00125 128
1 0.1058 0.226634 0.00221682 0.0109614 -0.013266 -0.149964 0.00125 129
1 0.11053 0.147262 0.00214144 0.000173947 -0.0146075 -0.0556462 0.00125 130
1 0.265023 0.0301981 0.00135447 0.0535051 -0.0253057 0.177192 0.00125 131
1 0.208057 0.181266 0.00131222 0.0225044 -0.00250404 -0.229461 0.00125 132
1 0.179757 0.304141 0.00147723 0.0105307 0.00718155 0.107753 0.00125 133
1 0.170742 0.300892 0.00138142 -0.00460534 -0.0091959 0.100012 0.00125 134
1 0.283965 0.147631 0.00229991 0.0123938 -0.0431219 -0.00835437 0.00125 135
1 0.0271354 0.05205 0.00123466 0.0516104 0.0118816 -0.129524 0.00125 136
1 0.107287 0.201243 0.00206662 0.0489285 -0.014763 -0.16341 0.00125 137
1 0.142303 0.155463 0.00125351 0.0091565 0.0406992 -0.278248 0.00125 138
1 0.0592061 0.0539325 0.00129728 0.0137488 -0.00876337 0.181642 0.00125 139
1 0.115446 0.089582 0.00232866 0.0212998 -0.00225647 -0.0772403 0.00125 140
1 0.174789 0.065839 0.00162044 -0.0504842 0.0168363 -0.198806 0.00125 141
1 0.20677 0.217565 0.00162249 -0.00459276 0.0142829 -0.221062 0.00125 142
1 0.293327 0.0895097 0.00232844 0.0447527 -0.0426769 -0.0431859 0.00125 143
1 0.293974 0.230779 0.00129478 0.00844062 0.0276158 0.115107 0.00125 144
1 0.0117393 0.244944 0.00154791 0.013682 0.00488241 0.164455 0.00125 145
1 0.0742691 0.116225 0.00247558 0.00946983 0.0105823 0.037109 0.00125 146
1 0.103471 0.15058 0.00180521 -0.0152295 -0.133226 -0.123231 0.00125 147
1 0.236928 0.176117 0.00202791 0.0116156 -0.0218721 -0.194382 0.00125 148
1 0.0217619 0.068819 0.00143846 -0.0294606 0.0261319 -0.115194 0.00125 149
1 0.166497 0.20863 0.00170886 -0.0530841 0.0290199 -0.0842765 0.00125 150
1 0.0524504 0.0596938 0.00128855 0.0153198 0.0139956 0.189292 0.00125 151
1 0.120382 0.0408156 0.00169422 -0.0114155 -0.0464239 -0.152281 0.00125 152
1 0.212229 0.121291 0.00134524 -0.0405316 -0.0279041 0.03987 0.00125 153
1 0.153736 0.00486237 0.00138269 -0.039414 -0.00669401 -0.237198 0.00125 154
1 0.290837 0.306001 0.00178724 0.00540106 -0.0315623 -0.0342395 0.00125 155
1 0.203001 0.280893 0.00152109 -0.0781255 -0.0768575 -0.189886 0.00125 156
1 0.0918523 0.0520008 0.00149956 0.0108287 0.0180136 0.143685 0.00125 157
1 0.0652792 0.0302711 0.00138452 0.010469 -0.0102849 -0.269982 0.00125 158
1 0.270101 0.153077 0.00166486 -0.0392596 -0.0308448 -0.0851815 0.00125 159
1 0.252932 0.263052 0.00124305 0.0054863 0.0164301 0.267387 0.00125 160
1 0.0829011 0.284938 0.00145813 -0.101295 -0.0566049 0.071997 0.00125 161
1 0.0766781 0.234431 0.00146638 -0.0167837 -0.0688629 -0.105784 0.00125 162
1 0.157804 0.224315 0.00136655 0.00651261 0.00482049 0.188789 0.00125 163
1 0.27128 0.258764 0.00132298 0.0267477 -0.0234349 -0.302132 0.00125 164
1 0.187262 0.0262867 0.00159419 -0.00471552 0.0422947 0.195847 0.00125 165
1 0.212166 0.11575 0.00126115 0.00472352 0.0119943 -0.26955 0.00125 166
1 0.0105555 0.242176 0.00210923 0.0486964 -0.0121891 -0.0588534 0.00125 167
1 0.270691 0.118064 0.00222368 -0.0284259 -0.00918829 -0.0358919 0.00125 168
1 0.255437 0.105199 0.00235303 -0.000748681 0.0114222 -0.0452433 0.00125 169
1 0.25421 0.0749261 0.00134353 0.107331 -0.0137948 0.100402 0.00125 170
1 0.0226562 0.0186096 0.00139468 0.0197803 0.0421971 0.177227 0.00125 171
1 0.0644518 0.0485822 0.00229544 -0.0642551 0.0561018 -0.0598937 0.00125 172
1 0.0896784 0.113638 0.00126467 -0.00470889 0.00669909 -0.218825 0.00125 173
1 0.180824 0.161671 0.00211391 0.0232332 0.0810365 -0.0612098 0.00125 174
1 0.0546719 0.129612 0.00150415 0.0309498 -0.0657169 0.0898554 0.00125 175
1 0.114737 0.262063 0.00130148 0.00266946 0.028282 0.00556109 0.00125 176
1 0.1082 0.0114096 0.00168352 0.0427732 -0.00518782 -0.212222 0.00125 177
1 0.201003 0.264753 0.00126868 0.0194924 -0.0160996 -0.0987041 0.00125 178
1 0.076124 0.170276 0.00158157 0.0200554 -0.0163252 -0.231391 0.00125 179
1 0.0175525 0.210777 0.00131796 -0.0553018 -0.00439215 0.205693 0.00125 180
1 0.158774 0.059383 0.00144094 -0.00364054 0.0525607 0.244822 0.00125 181
1 0.307119 0.274022 0.00241915 -0.0157008 -0.0175543 -0.0395115 0.00125 182
1 0.0300192 0.204793 0.00149404 0.0248794 0.0585586 -0.187205 0.00125 183
1 0.134891 0.309047 0.00223794 -0.0489935 -0.00165063 -0.0399738 0.00125 184
1 0.244478 0.257705 0.00139761 -0.0157532 -0.00997159 0.242848 0.00125 185
1 0.224731 0.103536 0.00136128 -0.0389417 -0.0129679 0.176044 0.00125 186
1 0.0584487 0.0890443 0.00135653 0.0187028 0.0538489 -0.248242 0.00125 187
1 0.209821 0.218239 0.00205514 0.000967643 -0.0512503 -0.110697 0.00125 188
1 0.259156 0.075328 0.00158491 -0.0161268 -0.0161737 0.0538671 0.00125 189
1 0.147146 0.065414 0.00134874 0.00479548 -0.025476 0.072821 0.00125 190
1 0.232306 0.0275721 0.00139625 0.0098609 0.0291721 -0.249174 0.00125 191
1 0.181729 0.206401 0.00184919 0.00547792 -0.0618474 -0.144196 0.00125 192
1 0.226912 0.234846 0.00200839 -0.0689501 0.0417199 -0.0695078 0.00125 193
1 0.288839 0.286316 0.00184405 -0.00636054 -0.00839805 -0.0185626 0.00125 194
1 0.128049 0.230779 0.00240919 -0.0201625 0.0493511 0.0278828 0.00125 195
1 0.16061 0.159324 0.00152138 -0.0242302 -0.0236558 -0.0861808 0.00125 196
1 0.152184 0.0559338 0.00139713 -0.0183278 -0.0211311 0.159386 0.00125 197
1 0.299 0.216514 0.00166201 0.0402822 -0.0548533 -0.160337 0.00125 198
1 0.284277 0.0620222 0.00127537 0.0119998 0.0155046 0.224895 0.00125 199
1 0.311396 0.19512 0.00239057 0.0162897 -0.00589357 -0.0232772 0.00125 200
1 0.0355693 0.0273213 0.0017992 0.10569 -0.013499 -0.23061 0.00125 201
1 0.15255 0.0838019 0.00124307 -0.012997 -0.0323399 -0.0882837 0.00125 202
1 0.0440996 0.246086 0.00179354 0.0121911 -0.0129474 -0.220318 0.00125 203
1 0.0608399 0.130782 0.00148556 -0.00519417 0.016573 0.0775147 0.00125 204
1 0.292127 0.232576 0.00163902 0.00596117 -0.00729915 0.091602 0.00125 205
1 0.00290413 0.275459 0.00200402 0.0908785 -0.00567653 -0.0794736 0.00125 206
1 0.0947524 0.0508232 0.00145023 -0.120155 0.0465739 -0.222094 0.00125 207
1 0.25646 0.177853 0.00125231 0.0286582 -0.0662296 -0.208872 0.00125 208
1 0.255761 0.292608 0.0015627 -0.00905264 -0.00801519 0.202785 0.00125 209
1 0.0160801 0.192772 0.00179863 0.022221 -0.0369958 -0.159186 0.00125 210
1 0.0622664 0.258581 0.0019254 0.0825484 -0.0200948 -0.2009 0.00125 211
1 0.303908 0.121195 0.00138068 -0.0477707 0.00577883 -0.221399 0.00125 212
1 0.0154839 0.159837 0.00134261 0.00208002 -0.0476961 0.167936 0.00125 213
1 0.215371 0.041885 0.00234322 0.0211642 -0.021255 -0.119682 0.00125 214
1 0.0219499 0.301295 0.00131221 -0.022248 0.0107966 -0.129604 0.00125 215
1 0.266449 0.132306 0.00183113 -0.0432116 0.00773535 -0.0741394 0.00125 216
1 0.0506702 0.279845 0.00130162 -0.0281898 -0.0121752 -0.188676 0.00125 217
1 0.268824 0.055226 0.00205578 -0.00908403 0.0156422 -0.209808 0.00125 218
1 0.109948 0.049351 0.00173161 0.0564521 -0.0284536 -0.232389 0.00125 219
1 0.0803609 0.14188 0.00146044 -0.00332155 0.0462934 -0.23278 0.00125 220
1 0.145786 0.0344902 0.00161589 0.00412959 -0.0348889 -0.21838 0.00125 221
1 0.23657 0.0131941 0.00176175 0.00601396 -0.00123099 -0.214789 0.00125 222
1 0.0602391 0.0787411 0.00129047 0.0189486 -0.0078162 -0.251395 0.00125 223
1 0.0293754 0.127396 0.00128527 0.035531 -0.0336448 0.186727 0.00125 224
1 0.0883983 0.220726 0.00143999 0.00690917 0.0030854 0.141162 0.00125 225
1 0.0840984 0.18379 0.00170012 0.0216819 -0.00698289 -0.240278 0.00125 226
1 0.1578 0.157228 0.00179164 -0.00801965 -0.00604063 -0.204807 0.00125 227
1 0.020001 0.0493882 0.00148392 -0.00945757 0.000918132 -0.20925 0.00125 228
1 0.267944 0.0431095 0.00145638 0.00507099 0.0174357 -0.216603 0.00125 229
1 0.221462 0.162401 0.00146145 0.047789 0.0194061 -0.08627 0.00125 230
1 0.107343 0.23579 0.00170349 -0.0085664 0.0986709 -0.161088 0.00125 231
1 0.296421 0.0361012 0.00152333 -0.0131271 0.0259183 -0.187039 0.00125 232
1 0.114639 0.245773 0.00143761 -0.0608651 -0.0117402 0.198689 0.00125 233
1 0.263616 0.17668 0.00135537 -0.0276387 0.00837314 -0.235381 0.00125 234
1 0.194214 0.0587704 0.00185676 0.0138256 -0.00888225 -0.100574 0.00125 235
1 0.0468607 0.196668 0.00125799 -0.00411218 0.01803 0.235952 0.00125 236
1 0.0793204 0.0818998 0.00197498 -0.0125278 0.00657111 -0.042645 0.00125 237
1 0.0505968 0.1357 0.00167413 0.00851029 -0.0204308 0.0905023 0.00125 238
1 0.22559 0.0430124 0.00197645 0.0166725 -0.0277149 -0.0794098 0.00125 239
1 0.00409218 0.226019 0.00214034 0.0166222 -0.00979696 -0.128385 0.00125 240
1 0.134452 0.170165 0.00139659 0.0108078 -0.0234052 0.188111 0.00125 241
1 0.108612 0.25182 0.00219183 -0.0316046 -0.00872877 -0.0361339 0.00125 242
1 0.112629 0.10316 0.00180034 -0.0114895 -0.0355987 -0.22836 0.00125 243
1 0.274798 0.134353 0.00154788 0.0198888 -0.00549605 0.127338 0.00125 244
1 0.211018 0.00695053 0.00150599 -0.000329039 -0.0957886 -0.14804 0.00125 245
1 0.151378 0.0535422 0.00146838 0.0154443 0.0073407 0.140416 0.00125 246
1 0.104501 0.0429757 0.00133707 0.000284309 0.00684027 0.174947 0.00125 247
1 0.243519 0.254572 0.00167578 0.0137901 0.038605 -0.180363 0.00125 248
1 0.143827 0.250609 0.00123526 -0.00755055 -0.0295178 0.121152 0.00125 249
1 0.147637 0.0916396 0.0021971 0.0165832 0.0484937 0.00642474 0.00125 250
1 0.235257 0.0461354 0.00135137 0.0206566 0.0320279 0.144447 0.00125 251
1 0.188277 0.064336 0.00213306 -0.0311755 -0.0770572 -0.148053 0.00125 252
1 0.0202612 0.0225691 0.0016483 0.0113359 -0.00723437 0.118556 0.00125 253
1 0.0141549 0.008357 0.00174599 0.0468201 -0.0313895 -0.202645 0.00125 254
1 0.266405 0.129528 0.0018718 -0.0157691 0.0185507 -0.0429563 0.00125 255
1 0.135434 0.0621708 0.00163773 0.00276665 0.0538306 -0.149935 0.00125 256
1 0.234132 0.00174705 0.00125331 -0.101114 -0.0403221 0.0345752 0.00125 257
1 0.257164 0.121874 0.0014409 0.0151982 -0.00742114 0.157592 0.00125 258
1 0.120831 0.130562 0.0013196 0.0145796 -0.00171846 -0.215053 0.00125 259
1 0.221925 0.185578 0.00236898 0.0266774 -0.0429941 -0.039083 0.00125 260
1 0.190682 0.181019 0.00124679 -0.00351675 -0.00906409 -0.191227 0.00125 261
1 0.260238 0.281427 0.00168911 0.0398972 -0.00282752 -0.0734157 0.00125 262
1 0.043423 0.250754 0.0012502 0.011368 0.0170555 -0.247158 0.00125 263
1 0.0688467 0.290791 0.00171094 -0.0216484 -0.0291989 -0.119011 0.00125 264
1 0.289324 0.0580823 0.00170217 -0.00475925 0.0336132 -0.227707 0.00125 265
1 0.308418 0.117913 0.00232593 0.0269831 -0.0235262 -0.0484508 0.00125 266
1 0.0101133 0.0868647 0.00188162 0.0158022 0.0173008 -0.206477 0.00125 267
1 0.0490638 0.172532 0.00131923 -0.0212327 0.00348199 -0.0860881 0.00125 268
1 0.0747996 0.237625 0.00144251 -0.0131069 -0.00245977 0.215883 0.00125 269
1 0.123235 0.285234 0.00176127 0.0680383 -0.042154 -0.165961 0.00125 270
1 0.0720447 0.289993 0.00132284 0.00351868 -0.0283877 -0.223391 0.00125 271
1 0.162836 0.15417 0.00141387 0.0150292 0.0139389 -0.224203 0.00125 272
1 0.192817 0.0879756 0.00123869 0.0156736 0.0193279 -0.213006 0.00125 273
1 0.0665816 0.0723967 0.00139238 0.0332291 -0.0342524 0.196449 0.00125 274
1 0.0201939 0.118774 0.00180279 0.0164394 0.029923 -0.255936 0.00125 275
1 0.17162 0.00657527 0.00165277 0.00762109 -0.0103061 -0.202001 0.00125 276
1 0.00740919 0.177958 0.00179205 0.0213644 0.0364995 -0.0929013 0.00125 277
1 0.196246 0.0514193 0.00204523 -0.00635548 0.0412873 -0.154352 0.00125 278
1 0.183927 0.223876 0.00123285 -0.0211651 -0.00547082 0.0922358 0.00125 279
1 0.073605 0.11309 0.00150876 0.0259779 -0.00127726 0.146525 0.00125 280
1 0.233888 0.212879 0.00147733 0.0268349 -0.00275987 0.223825 0.00125 281
1 0.165402 0.0170727 0.00167458 -0.0412797 0.0237205 0.066221 0.00125 282
1 0.158846 0.245286 0.00234885 -0.0835992 0.0178744 -0.0694978 0.00125 283
1 0.247458 0.152816 0.00149128 0.083924 -0.0728704 -0.0078241 0.00125 284
1 0.123353 0.282514 0.00152138 0.0248172 0.014405 0.0723939 0.00125 285
1 0.149426 0.0482373 0.0013169 0.0395578 0.0560423 -0.104913 0.00125 286
1 0.10289 0.257699 0.00158779 -0.00191057 -0.0417905 -0.147718 0.00125 287
1 0.268669 0.209353 0.00169825 -0.0200502 0.0241936 -0.220203 0.00125 288
1 0.177682 0.142856 0.00176133 0.0155875 0.00101862 -0.186846 0.00125 289
1 0.11835 0.0625694 0.00127149 -0.00170557 0.0119678 -0.3083 0.00125 290
1 0.309742 0.0989851 0.00125322 -0.00251305 -0.0128585 -0.0342613 0.00125 291
1 0.0717394 0.191844 0.00151441 0.0249728 -0.047446 0.125553 0.00125 292
1 0.306251 0.268828 0.00123272 -0.00632938 0.00969492 0.115793 0.00125 293
1 0.161787 0.28851 0.00161955 -0.00429136 -0.0363304 -0.225037 0.00125 294
1 0.0891586 0.274709 0.00171272 -0.00783513 -0.0023471 0.0924358 0.00125 295
1 0.0411167 0.252659 0.00126127 0.0107294 0.00230454 0.19804 0.00125 296
1 0.124303 0.0605124 0.00127074 0.026118 -0.0639758 0.241703 0.00125 297
1 0.310606 0.064938 0.00141015 0.0338783 -0.00764726 -0.248001 0.00125 298
1 0.0551732 0.0131663 0.00147133 0.0186413 -0.00237684 -0.255507 0.00125 299
1 0.231955 0.0608136 0.00151444 -0.00103816 0.0244335 -0.216864 0.00125 300
1 0.244951 0.313008 0.00157918 0.0467323 -0.0902897 0.122211 0.00125 301
1 0.0463791 0.0100295 0.00142258 -0.0172109 -0.00590173 -0.222375 0.00125 302
1 0.221147 0.147615 0.00125843 -0.0182089 -0.00111139 0.176143 0.00125 303
1 0.0908095 0.0394528 0.00147924 0.0273682 -0.0287917 -0.248578 0.00125 304
1 0.046035 0.141084 0.00155944 0.0489738 0.0101583 0.0994059 0.00125 305
1 0.206929 0.177506 0.00140801 0.00797592 0.0265278 -0.284115 0.00125 306
1 0.179506 0.0479194 0.00247816 0.00661442 -0.00271771 -0.0258425 0.00125 307
1 0.223039 0.229624 0.00129603 0.0135864 0.0199243 0.192359 0.00125 308
1 0.167099 0.137597 0.00127806 0.0384691 0.0141691 -0.0477138 0.00125 309
1 0.00257052 0.232744 0.00194271 -0.0225569 0.00788317 -0.143703 0.00125 310
1 0.0640331 0.288613 0.00142977 0.0330257 -0.00210817 -0.145595 0.00125 311
1 0.265089 0.116142 0.0013975 -0.00521967 -0.0148784 -0.234071 0.00125 312
1 0.111716 0.29112 0.00136962 0.00396616 0.0320195 0.206516 0.00125 313
1 0.0418446 0.000656025 0.00147843 0.00587639 -0.0488172 -0.228823 0.00125 314
1 0.203477 0.15687 0.00147521 -0.0272343 0.00372202 0.186061 0.00125 315
1 0.243355 0.131439 0.00182496 0.0107121 -0.107964 -0.158 0.00125 316
1 0.0882628 0.0845558 0.00122999 -0.0257686 -0.0315037 -0.0966932 0.00125 317
1 0.263395 0.121893 0.00186899 0.0451261 -0.0653441 -0.0853344 0.00125 318
1 0.196112 0.00825677 0.00122679 0.0037494 0.00324178 0.0773121 0.00125 319
1 0.0700034 0.288538 0.00133963 0.0169579 0.0306852 -0.205363 0.00125 320
1 0.135138 0.0646653 0.00174368 0.0467506 -0.0137428 -0.156025 0.00125 321
1 0.141263 0.147687 0.00150618 -0.0112008 0.0398661 0.213879 0.00125 322
1 0.19883 0.0706969 0.00250328 0.0121955 0.0134465 0.0286193 0.00125 323
1 0.239323 0.199117 0.00164304 -0.0245169 0.0245272 -0.238451 0.00125 324
1 0.129323 0.0517629 0.00130663 0.0269133 -0.00845931 -0.246679 0.00125 325
1 0.301623 0.122359 0.00156818 -0.0247415 0.0744916 -0.238068 0.00125 326
1 0.232315 0.186018 0.0020119 -0.00326968 0.0739193 -0.208487 0.00125 327
1 0.0282436 0.198833 0.00157105 0.00761938 -0.0288853 -0.1023 0.00125 328
1 0.108924 0.0875927 0.00183353 -0.0274617 0.0112416 -0.239944 0.00125 329
1 0.104231 0.302299 0.00161832 0.00330057 0.0418233 -0.0466675 0.00125 330
1 0.131917 0.136127 0.00165795 0.0237805 0.00448248 -0.111502 0.00125 331
1 0.186421 0.161212 0.00132384 0.00937568 0.00672617 -0.245641 0.00125 332
1 0.178244 0.219247 0.00219186 0.00393384 0.018087 0.00741578 0.00125 333
1 0.0380435 0.0883641 0.0016947 0.0124635 0.00785762 0.0918806 0.00125 334
1 0.296679 0.285481 0.00131382 -0.029963 -0.00527974 0.203886 0.00125 335
1 0.0864156 0.0736092 0.00124995 0.0426259 0.0462939 0.257934 0.00125 336
1 0.135138 0.253359 0.00133364 0.00624029 0.0844673 -0.0529142 0.00125 337
1 0.23993 0.0263638 0.00167819 0.0998599 -0.0836206 -0.109283 0.00125 338
1 0.225408 0.240345 0.00199867 -0.0171951 -0.00772653 -0.0476815 0.00125 339
1 0.0237611 0.169323 0.00163543 -0.0297251 -0.0408475 0.136579 0.00125 340
1 0.139603 0.0369177 0.00212834 0.0344609 -0.0575182 6.04266e-06 0.00125 341
1 0.264187 0.26471 0.00179756 0.00687667 -0.0570371 -0.222381 0.00125 342
1 0.166273 0.285679 0.00142812 0.0108203 0.00414815 0.139283 0.00125 343
1 0.155549 0.0331822 0.00138995 0.00511335 -0.0173868 0.17178 0.00125 344
1 0.249344 0.298593 0.00156803 -0.0186196 -0.0107962 -0.114692 0.00125 345
1 0.121972 0.259292 0.0017591 -0.0145742 -0.0277555 -0.156059 0.00125 346
1 0.185971 0.296062 0.00146011 -0.00475331 -0.0202985 0.229758 0.00125 347
1 0.137296 0.205883 0.00130051 0.00104996 -0.0114599 -0.213505 0.00125 348
1 0.304243 0.213482 0.00159567 -0.016061 0.0124204 0.190261 0.00125 349
1 0.252642 0.0689003 0.00136692 -0.0267205 0.0258788 0.164198 0.00125 350
1 0.242385 0.240652 0.00144389 0.027865 0.0324413 -0.230878 0.00125 351
1 0.0223682 0.229036 0.00234186 0.000464381 0.0185657 -0.00387095 0.00125 352
1 0.296502 0.214294 0.00169317 -0.0411763 -0.0330441 -0.110022 0.00125 353
1 0.0337402 0.125525 0.00196005 0.02302 -0.0620299 -0.119393 0.00125 354
1 0.230523 0.231592 0.00181144 0.0736815 0.002425 -0.226341 0.00125 355
1 0.0698967 0.285727 0.00132493 -0.0524939 -0.0144585 0.226803 0.00125 356
1 0.0447785 0.24265 0.00190308 -0.00863887 -0.0157648 -0.0736492 0.00125 357
1 0.246945 0.19522 0.00146974 -0.0192158 0.0298383 0.173488 0.00125 358
1 0.123383 0.0276166 0.00133139 0.0541009 -0.0897168 -0.247686 0.00125 359
1 0.273475 0.102174 0.00125121 -0.0127885 0.0227497 0.198417 0.00125 360
1 0.119618 0.0814348 0.00129949 0.0199436 0.00113399 -0.245463 0.00125 361
1 0.111472 0.00979921 0.00171194 -0.0174981 -0.0143202 0.0995089 0.00125 362
1 0.24356 0.224161 0.00148812 -0.13946 0.00701634 -0.208414 0.00125 363
1 0.149076 0.226224 0.00140943 0.0754201 0.00073092 -0.220436 0.00125 364
1 0.00650685 0.0902373 0.00139598 0.0388346 0.0165533 -0.229847 0.00125 365
1 0.0893902 0.144207 0.00165653 -0.0429648 0.0214044 0.0736485 0.00125 366
1 0.302306 0.0144126 0.00127585 -0.00482853 0.00885951 0.183882 0.00125 367
1 0.149401 0.123979 0.00172725 -0.0223324 -0.00186246 -0.0917971 0.00125 368
1 0.0837409 0.297005 0.00240357 0.00686987 0.00365798 -0.0438271 0.00125 369
1 0.0800855 0.284826 0.00148999 0.0192173 -0.0237433 0.16398 0.00125 370
1 0.021 0.277832 0.00133235 0.0133996 -0.0481291 -0.261015 0.00125 371
1 0.238763 0.287056 0.00247402 -0.0317441 -0.0305074 -0.00251636 0.00125 372
1 0.0181525 0.159512 0.00142433 -0.0585632 0.0277227 -0.19546 0.00125 373
1 0.296227 0.253165 0.00155535 -0.00467492 0.00335234 -0.179583 0.00125 374
1 0.271018 0.0421561 0.00134578 -0.0280339 -0.0485388 -0.199153 0.00125 375
1 0.278039 0.255369 0.00233259 0.0386164 0.00098904 -0.13034 0.00125 376
1 0.204312 0.109093 0.00147571 0.0275002 -0.0106028 0.231335 0.00125 377
1 0.0564245 0.0526483 0.00150461 0.0181382 0.044381 -0.265306 0.00125 378
1 0.0225422 0.162043 0.00128135 -0.00596991 -0.0277241 -0.198734 0.00125 379
1 0.0726561 0.266214 0.00124905 0.0343472 -0.0421641 0.180658 0.00125 380
1 0.0498724 0.0370406 0.00156241 0.0599975 -0.0210749 -0.255404 0.00125 381
1 0.0556786 0.256278 0.00212503 0.0109943 0.00430799 -0.0313773 0.00125 382
1 0.228127 0.266072 0.00144387 -0.0042331 -0.0234732 0.200776 0.00125 383
1 0.259715 0.270924 0.00228079 -0.0379991 0.0154431 -0.128565 0.00125 384
1 0.000843991 0.0668703 0.00176818 0.0130212 0.0378877 -0.218368 0.00125 385
1 0.0511182 0.0191338 0.00244508 -0.0421679 -0.0229215 -0.0440807 0.00125 386
1 0.0657519 0.0120175 0.0014144 -0.0164747 0.0137869 -0.239857 0.00125 387
1 0.00947509 0.0844315 0.00144821 0.0146528 0.0284669 0.22687 0.00125 388
1 0.0628673 0.10324 0.00143107 0.00381279 -0.00153788 0.172328 0.00125 389
1 0.309685 0.223636 0.00133542 -0.0234621 0.0360252 0.192319 0.00125 390
1 0.25078 0.0255731 0.00137231 0.0213648 -0.0283414 0.143767 0.00125 391
1 0.0139518 0.0513833 0.00126703 0.0294379 -0.0276343 -0.114602 0.00125 392
1 0.305129 0.0690389 0.00173136 0.0414838 0.000377473 0.0352433 0.00125 393
1 0.298495 0.247301 0.00216356 0.0376363 -0.0110116 -0.0546379 0.00125 394
1 0.123909 0.218596 0.00211501 -0.0481887 -0.0679171 -0.1096 0.00125 395
1 0.228476 0.255312 0.001692 0.0193137 -0.00982531 -0.240827 0.00125 396
1 0.0600205 0.0431804 0.00145297 0.0293053 0.0342817 -0.245112 0.00125 397
1 0.173379 0.0554926 0.00135321 -0.0197646 0.00196893 -0.0986756 0.00125 398
1 0.259862 0.311379 0.00213632 -0.0146861 -0.00272718 -0.167045 0.00125 399
1 0.137299 0.180011 0.00131112 0.0189627 -0.003218 -0.247471 0.00125 400