ITEM: TIMESTEP
1000000
ITEM: NUMBER OF ATOMS
10000
ITEM: BOX BOUNDS pp pp ff
0.0000000000000000e+00 3.7702479500000002e-01
0.0000000000000000e+00 3.7702479500000002e-01
-1.2500000000000001e-02 1.2500000000000001e-02
ITEM: ATOMS type x y z vx vy vz radius id
1 0.292449 0.00482072 0.0015309 0.00789279 -0.00143703 -0.2287 0.00125 1
1 0.235271 0.204644 0.00147801 0.0253815 0.00351101 0.114203 0.00125 2
1 0.0491151 0.178795 0.00125968 0.0166519 0.0349201 -0.215454 0.00125 3
1 0.289466 0.359546 0.00170221 -0.00247273 -0.0126073 -0.0800708 0.00125 4
1 0.312671 0.0629613 0.00218831 0.000853704 -0.00846204 0.014251 0.00125 5
1 0.0544274 0.0950832 0.00159201 0.0062934 -0.0094953 -0.0591122 0.00125 6
1 0.314369 0.262516 0.00203606 -0.0248719 0.0255048 -0.181839 0.00125 7
1 0.109051 0.0293649 0.00164818 0.0179308 -0.0137355 0.136119 0.00125 8
1 0.332225 0.341296 0.00128159 0.00718407 0.000779856 -0.314593 0.00125 9
1 0.109479 0.166504 0.00124485 0.0285903 0.0194976 -0.237177 0.00125 10
1 0.0608193 0.0783581 0.00148361 -0.00334182 -0.0157822 0.115784 0.00125 11
1 0.273076 0.0462131 0.00247293 0.00368959 0.00560115 0.0356398 0.00125 12
1 0.216566 0.237426 0.00124994 -0.0114767 -0.00467581 -0.248005 0.00125 13
1 0.209529 0.301432 0.00181526 -0.00783221 0.0169686 -0.0817178 0.00125 14
1 0.164647 0.167155 0.0012381 0.00332232 -0.00277818 -0.149543 0.00125 15
1 0.369008 0.141469 0.00153973 -0.0741522 0.0580241 -0.17993 0.00125 16
1 0.0893251 0.260621 0.00146304 0.0216319 -0.00624603 0.0863242 0.00125 17
1 0.261867 0.142263 0.00136145 -0.00799405 -0.00889836 0.182253 0.00125 18
1 0.0775852 0.130043 0.00122634 0.00135844 -0.002384 0.109957 0.00125 19
1 0.123829 0.0213412 0.00153596 0.0115544 0.014223 0.109072 0.00125 20
1 0.203678 0.346913 0.0014185 -0.00798729 -0.00538774 -0.228396 0.00125 21
1 0.160124 0.256411 0.00129199 0.0173125 0.00180692 -0.241404 0.00125 22
1 0.0783594 0.226151 0.00127706 0.00740046 0.00829732 0.19541 0.00125 23
1 0.151574 0.283706 0.00148547 -0.0149514 -0.00707755 0.081616 0.00125 24
1 0.303826 0.0765328 0.00181628 0.0123139 0.00923462 -0.204173 0.00125 25
1 0.216469 0.223973 0.00133096 -0.0170985 0.00838953 -0.222376 0.00125 26
1 0.198079 0.314306 0.00124064 -0.0175087 -0.0144634 0.187917 0.00125 27
1 0.204143 0.107768 0.00132776 0.00927315 -0.00396413 -0.230527 0.00125 28
1 0.267113 0.151811 0.00164168 -0.0111618 -0.00191339 -0.224908 0.00125 29
1 0.0487849 0.120171 0.00200339 -0.0222734 0.0141062 -0.0637954 0.00125 30
1 0.287215 0.101601 0.00156443 0.011025 -0.000781556 0.0522294 0.00125 31
1 0.350586 0.229382 0.00159783 -0.00165085 -0.0320721 -0.184513 0.00125 32
1 0.300164 0.338399 0.00134874 0.0113787 0.0163982 0.244168 0.00125 33
1 0.310754 0.115269 0.00215302 0.0147414 -0.0105601 -0.193548 0.00125 34
1 0.241634 0.343124 0.00150912 -0.0110704 -0.0742585 -0.257351 0.00125 35
1 0.126778 0.0152216 0.00125846 0.00230232 0.0150408 -0.116782 0.00125 36
1 0.0516267 0.022398 0.00133923 0.0492841 0.0549652 -0.0097294 0.00125 37
1 0.296464 0.10937 0.00206303 -0.00229611 0.00487141 -0.215421 0.00125 38
1 0.132475 0.21667 0.0014047 -0.0322548 -0.015181 -0.240758 0.00125 39
1 0.106218 0.31665 0.00166824 -0.0228318 0.0157047 -0.225058 0.00125 40
1 0.27025 0.0954856 0.00127864 0.0113405 -0.00287248 0.205168 0.00125 41
1 0.366253 0.26077 0.00123776 -0.000738845 0.01253 -0.190438 0.00125 42
1 0.166638 0.174914 0.00125768 -0.000109395 0.00885468 0.242827 0.00125 43
1 0.302326 0.106712 0.00152273 -0.0154177 0.0197854 -0.176115 0.00125 44
1 0.19239 0.337494 0.00223462 -0.0159088 -0.0228754 -0.176357 0.00125 45
1 0.343993 0.156535 0.00127653 -0.00491425 0.000367917 0.207264 0.00125 46
1 0.170119 0.255818 0.00155196 -0.000445877 0.0101886 -0.241014 0.00125 47
1 0.346651 0.227188 0.00170091 -0.000191134 0.00756416 -0.0905866 0.00125 48
1 0.351348 0.26957 0.00223262 0.0338562 0.0313287 -0.0290571 0.00125 49
1 0.241899 0.267626 0.00218902 -0.0128865 -0.00111459 0.011 0.00125 50
1 0.176287 0.124607 0.00222404 -0.0117169 -0.0276205 -0.0652707 0.00125 51
1 0.298744 0.269567 0.00154045 0.012956 0.0100429 0.152187 0.00125 52
1 0.0596532 0.143695 0.00164484 0.027407 0.00746619 0.123531 0.00125 53
1 0.362237 0.0192957 0.00159097 0.0159725 -0.0272579 0.150838 0.00125 54
1 0.104426 0.0390976 0.00158583 0.00203779 0.0068144 -0.235715 0.00125 55
1 0.177213 0.217991 0.00157593 0.0114152 0.00969117 -0.234627 0.00125 56
1 0.000405319 0.0706886 0.00162861 0.00360802 -0.00462932 -0.161945 0.00125 57
1 0.160669 0.372311 0.00138763 0.00951884 0.00315153 0.162278 0.00125 58
1 0.128931 0.276893 0.00232196 -0.0384695 -0.00906162 -0.118356 0.00125 59
1 0.224242 0.162484 0.00185175 0.00454789 0.0261078 -0.197406 0.00125 60
1 0.319766 0.0632571 0.00138965 0.0102522 -0.0184875 0.175803 0.00125 61
1 0.367939 0.151006 0.00134558 -0.0320349 -0.042174 -0.232709 0.00125 62
1 0.0337585 0.11109 0.0014172 -0.01401 0.0160618 -0.246231 0.00125 63
1 0.230982 0.0437255 0.00147401 -0.0115635 0.0253998 -0.0981009 0.00125 64
1 0.215405 0.226724 0.00150936 0.010215 0.0051113 -0.238386 0.00125 65
1 0.179398 0.195773 0.00171276 -0.00171439 -0.013972 0.180613 0.00125 66
1 0.376296 0.276173 0.00146633 -0.0712869 0.0311228 0.0639674 0.00125 67
1 0.244112 0.0353246 0.00153703 -0.00335229 0.0094919 0.153687 0.00125 68
1 0.0494598 0.105486 0.00135687 -0.00241678 0.0221472 -0.243647 0.00125 69
1 0.100319 0.119039 0.00156571 0.0130165 -0.00910143 0.0525693 0.00125 70
1 0.168276 0.149287 0.0014187 -0.0320889 0.0291963 -0.236413 0.00125 71
1 0.372572 0.272696 0.00152094 0.0395603 -0.00815353 0.121019 0.00125 72
1 0.0883365 0.0645635 0.00176729 0.0170757 -0.00516074 -0.0419016 0.00125 73
1 0.259494 0.253007 0.00252279 0.00707274 -0.0131757 -0.0265343 0.00125 74
1 0.00162396 0.311522 0.00131468 -0.0132205 -0.010078 -0.230635 0.00125 75
1 0.169634 0.111039 0.0013929 -0.0108213 0.0325593 0.155294 0.00125 76
1 0.349345 0.2626 0.00148211 0.00977532 0.00202912 -0.239227 0.00125 77
1 0.100468 0.179698 0.00144747 -0.000929523 -0.0122417 -0.0970265 0.00125 78
1 0.333807 0.0854638 0.00138899 -0.01064 -0.00137604 -0.236486 0.00125 79
1 0.22291 0.248337 0.00137459 0.00845037 -0.000309833 -0.231779 0.00125 80
1 0.158679 0.0183005 0.0015944 0.00449231 0.018205 -0.288877 0.00125 81
1 0.180312 0.0818477 0.00182885 0.00162335 0.00594412 -0.240809 0.00125 82
1 0.356255 0.119096 0.00126062 0.000165473 -0.0145033 0.0471268 0.00125 83
1 0.0644138 0.268555 0.00164745 -0.0205293 -0.00606767 -0.231791 0.00125 84
1 0.106053 0.307844 0.00202602 0.0250095 -0.0257939 -0.0384177 0.00125 85
1 0.138029 0.306092 0.00148932 0.030794 0.00111753 -0.197461 0.00125 86
1 0.217287 0.254037 0.00207283 -0.0132384 -0.0086763 -0.179303 0.00125 87
1 0.372751 0.25232 0.00131105 0.0213304 0.0414612 -0.229627 0.00125 88
1 0.275273 0.0125569 0.00148 0.0052241 -0.00232242 -0.229555 0.00125 89
1 0.363886 0.0796608 0.00125616 0.0208818 -0.00844587 -0.316063 0.00125 90
1 0.0482448 0.188107 0.00125722 0.0117473 0.049149 -0.301673 0.00125 91
1 0.346641 0.144372 0.00131729 0.0148095 -0.0104003 0.175871 0.00125 92
1 0.0916138 0.123628 0.00124934 0.00575183 -0.0011116 0.20435 0.00125 93
1 0.356913 0.205886 0.00250758 0.0144144 0.0277138 -0.0283051 0.00125 94
1 0.111279 0.14445 0.00149364 0.0216471 0.0063442 0.121127 0.00125 95
1 0.103732 0.332651 0.00129827 -0.027067 0.00539524 -0.2338 0.00125 96
1 0.191418 0.191156 0.00201036 -0.0404373 0.0223463 -0.0588561 0.00125 97
1 0.313947 0.242799 0.00126881 0.0177987 -0.00667848 -0.22989 0.00125 98
1 0.125205 0.252902 0.00125543 -0.00899897 -0.0053796 -0.00709369 0.00125 99
1 0.129 0.236851 0.00126668 0.00013477 -0.0116183 -0.236121 0.00125 100
1 0.19963 0.308963 0.00161535 0.0153937 -0.00998824 0.0957092 0.00125 101
1 0.355785 0.109149 0.00176666 -0.00937132 -0.0222535 0.170055 0.00125 102
1 0.0821155 0.234172 0.00135373 0.0128725 0.0214734 -0.246644 0.00125 103
1 0.0244009 0.0576693 0.00141175 0.00358373 0.0569024 -0.127966 0.00125 104
1 0.0117142 0.313076 0.00141573 -0.0145863 -0.0137566 0.143315 0.00125 105
1 0.0387963 0.0941689 0.00135036 0.0154174 0.0213998 0.203444 0.00125 106
1 0.332304 0.0529695 0.00199038 -0.0178358 -0.0176049 -0.0668965 0.00125 107
1 0.0110327 0.342385 0.00179978 0.00790077 -0.0184599 -0.202465 0.00125 108
1 0.341933 0.0136467 0.00169551 -0.0334398 0.0083975 0.111732 0.00125 109
1 0.172182 0.325261 0.00134904 0.0112182 0.0044347 -0.0851483 0.00125 110
1 0.0541221 0.336563 0.00227042 -0.0127652 0.0201181 -0.0375104 0.00125 111
1 0.303239 0.127213 0.00148388 -0.00878459 0.0200398 -0.233717 0.00125 112
1 0.139934 0.259876 0.00142783 -0.0124276 -0.0202671 -0.249626 0.00125 113
1 0.198287 0.290192 0.00190466 -0.0361649 -0.0196578 -0.0655012 0.00125 114
1 0.130536 0.365363 0.00139246 -0.00365178 -0.00854421 -0.242567 0.00125 115
1 0.0552026 0.120838 0.00133842 -0.00326933 0.0141345 -0.228152 0.00125 116
1 0.283563 0.309053 0.00125601 -0.0325267 -0.0145011 0.195486 0.00125 117
1 0.0451099 0.0234015 0.00175741 0.00899445 -0.0527915 0.163841 0.00125 118
1 0.211733 0.357764 0.00141244 0.0146245 0.00147948 0.175917 0.00125 119
1 0.118512 0.217093 0.0016809 -0.00979996 0.00575518 0.0960881 0.00125 120
1 0.249512 0.266993 0.00169417 -0.0213533 0.00263862 0.0971533 0.00125 121
1 0.113979 0.17899 0.00174132 0.00290043 -0.0165566 0.114637 0.00125 122
1 0.203273 0.163233 0.00167465 0.0229558 -0.0345712 -0.165695 0.00125 123
1 0.299714 0.11329 0.00171871 -0.0102342 -0.000785695 0.178569 0.00125 124
1 0.118971 0.285741 0.0012793 0.00471534 -0.0109911 -0.223723 0.00125 125
1 0.0942166 0.356789 0.00140914 0.0644762 0.0251895 -0.168481 0.00125 126
1 0.342222 0.297603 0.00157584 0.0307639 0.0153597 0.0939415 0.00125 127
1 0.356123 0.133274 0.00148493 -0.00594046 -0.0170795 0.204099 0.00125 128
1 0.0967207 0.146523 0.00180344 -0.0138213 0.0146173 -0.223833 0.00125 129
1 0.203436 0.1676 0.0014191 -0.00873502 0.00775142 -0.200572 0.00125 130
1 0.220945 0.335635 0.00166384 0.0407987 0.0308674 0.0877968 0.00125 131
1 0.164352 0.138461 0.00197244 -0.00528323 0.00127901 -0.0671317 0.00125 132
1 0.303029 0.17168 0.00149788 -0.00466432 -0.0253931 0.135205 0.00125 133
1 0.0559466 0.0270014 0.00127231 -0.00584718 0.000428988 -0.228966 0.00125 134
1 0.228955 0.286388 0.00148911 -0.00426106 -0.0039732 0.150508 0.00125 135
1 0.182617 0.0803462 0.00132698 0.025331 -0.00234631 0.23989 0.00125 136
1 0.135088 0.147553 0.00204288 0.0276494 0.0155044 -0.0623694 0.00125 137
1 0.146 0.0929268 0.00146687 0.076825 0.114565 -0.1879 0.00125 138
1 0.15033 0.0054556 0.00136521 -0.0149552 -0.00391499 0.150146 0.00125 139
1 0.262001 0.0710241 0.00168758 -0.0130674 0.0125946 0.0848663 0.00125 140
1 0.345523 0.133317 0.00154023 -0.00468898 -0.0296803 -0.231342 0.00125 141
1 0.273872 0.213611 0.00152846 -0.0358911 -0.0119991 -0.230259 0.00125 142
1 0.24626 0.307054 0.0014253 -0.00225598 0.0367351 -0.199386 0.00125 143
1 0.170714 0.301607 0.00155081 0.00791004 -0.0225625 -0.223846 0.00125 144
1 0.00113836 0.0509707 0.00171441 0.0233678 0.0358111 -0.112911 0.00125 145
1 0.137525 0.19912 0.00134893 0.0154885 0.0099375 -0.307814 0.00125 146
1 0.230183 0.36598 0.00155305 -0.00225466 -0.0225763 -0.233681 0.00125 147
1 0.169131 0.0540944 0.00149545 0.0126034 0.00330217 0.207359 0.00125 148
1 0.0484118 0.09806 0.00130348 -0.00193361 -0.0279078 0.261353 0.00125 149
1 0.344871 0.356394 0.00144293 0.00335817 -0.00261079 -0.0513363 0.00125 150
1 0.297957 0.0691751 0.00163664 -0.0142884 0.0649859 0.0721629 0.00125 151
1 0.17713 0.136033 0.00128762 0.0218439 -0.00215987 0.173096 0.00125 152
1 0.0781611 0.340882 0.00129042 0.00360426 0.00150787 -0.0541047 0.00125 153
1 0.127429 0.224658 0.00162329 0.0334708 0.0266035 -0.0988713 0.00125 154
1 0.348497 0.367869 0.00143444 0.0111664 0.0129936 -0.0985439 0.00125 155
1 0.342716 0.314742 0.00174854 0.0298705 0.00130432 0.150879 0.00125 156
1 0.102964 0.279276 0.00147282 0.00434326 0.0153007 -0.22611 0.00125 157
1 0.0849883 0.292809 0.00144642 -0.00612816 -0.00118318 -0.294953 0.00125 158
1 0.176064 0.273126 0.00130723 -0.0189321 0.0109804 0.268954 0.00125 159
1 0.0118338 0.241686 0.00233887 -0.0193571 -0.0215195 -0.0267163 0.00125 160
1 0.112147 0.255444 0.00136225 0.0182333 -0.000526337 -0.242565 0.00125 161
1 0.0775587 0.344376 0.00152093 -0.0142767 -0.00873665 -0.192357 0.00125 162
1 0.159867 0.0429117 0.00139099 -0.00536443 0.00694028 -0.243685 0.00125 163
1 0.0732514 0.222335 0.00154035 0.0136081 -0.0261934 0.118366 0.00125 164
1 0.161675 0.0402285 0.00148312 0.0137551 -0.0100371 0.12381 0.00125 165
1 0.347883 0.00595064 0.00130373 -0.0119296 -0.0103222 0.178115 0.00125 166
1 0.057368 0.267925 0.00162371 0.0104962 -0.0121691 0.0895434 0.00125 167
1 0.0467652 0.166074 0.00154869 0.0211893 -0.0600275 0.107837 0.00125 168
1 0.347305 0.338436 0.00172783 -0.00544912 0.00303088 -0.0666745 0.00125 169
1 0.186307 0.370581 0.00147335 -0.0158015 0.0476605 0.174469 0.00125 170
1 0.187298 0.373572 0.00154538 -0.0103408 0.001895 0.0614006 0.00125 171
1 0.0943971 0.222531 0.00167275 -0.0193588 0.0492243 0.0952163 0.00125 172
1 0.304359 0.0808319 0.00203138 -0.000108097 0.0184337 -0.185472 0.00125 173
1 0.125028 0.149029 0.00156418 -0.0177596 -0.0341635 -0.116106 0.00125 174
1 0.360163 0.270042 0.00167032 0.0638443 0.0988207 -0.165207 0.00125 175
1 0.0111273 0.0610345 0.00161907 0.0228639 -0.0110445 -0.0929253 0.00125 176
1 0.300994 0.242643 0.00134708 0.0175748 -0.0101144 -0.310302 0.00125 177
1 0.305324 0.283967 0.00188919 0.0189482 -0.0144703 -0.0721838 0.00125 178
1 0.192012 0.119923 0.00142771 -0.00927459 0.0143512 -0.0763248 0.00125 179
1 0.0530753 0.209312 0.0017315 0.0293567 0.0174828 0.0700265 0.00125 180
1 0.353559 0.257751 0.00178868 0.0319917 0.00654738 -0.218482 0.00125 181
1 0.194265 0.0937654 0.00185033 0.0136165 -0.011684 -0.253552 0.00125 182
1 0.260974 0.344211 0.00181942 0.00907992 0.00346697 0.115256 0.00125 183
1 0.0211123 0.363014 0.00155473 -0.0198367 -0.00174961 -0.228252 0.00125 184
1 0.239172 0.299029 0.0013874 0.0123583 0.0206344 -0.176258 0.00125 185
1 0.296097 0.308926 0.00126082 0.0330707 0.0157244 0.0197606 0.00125 186
1 0.248687 0.292933 0.00146205 0.000616792 0.00694901 0.208009 0.00125 187
1 0.339968 0.191554 0.00145001 0.00833975 0.00288202 0.0921375 0.00125 188
1 0.162067 0.258411 0.00123705 0.0147181 -0.0045487 0.161915 0.00125 189
1 0.0656909 0.211798 0.00127294 -0.00817961 -0.0220428 0.225386 0.00125 190
1 0.267791 0.0827106 0.00171713 -0.0241265 -0.00821672 0.180625 0.00125 191
1 0.049303 0.117045 0.00129483 -0.00368246 -0.00742766 0.165932 0.00125 192
1 0.136735 0.339661 0.00128199 -1.83995e-05 0.00878433 0.266467 0.00125 193
1 0.325741 0.353714 0.00182711 0.0227946 0.00150651 -0.0437359 0.00125 194
1 0.0484617 0.353497 0.00171626 -0.0284569 0.0197429 -0.216182 0.00125 195
1 0.314558 0.353491 0.00232236 0.0188511 0.0138899 -0.0435744 0.00125 196
1 0.203582 0.224757 0.00176472 -0.0323114 0.00130494 0.146827 0.00125 197
1 0.283124 0.119958 0.00130965 -0.0264023 -0.0113006 -0.236124 0.00125 198
1 0.219324 0.148684 0.00150918 0.0238568 0.0163453 -0.116626 0.00125 199
1 0.00931304 0.184636 0.00174702 -0.0340541 0.000176635 -0.221275 0.00125 200
1 0.366369 0.0863546 0.0013634 0.00891764 -0.00290798 0.158513 0.00125 201
1 0.0703013 0.366866 0.00129139 -0.0176946 -0.0125031 0.237824 0.00125 202
1 0.220909 0.0363911 0.00218803 0.00160352 0.0026318 -0.155609 0.00125 203
1 0.269605 0.180407 0.00173762 -0.0513828 0.00918928 -0.0671005 0.00125 204
1 0.312018 0.335196 0.00209877 -0.00260048 -0.0220499 -0.0120726 0.00125 205
1 0.178103 0.31209 0.00131436 0.00499299 0.0271165 -0.239545 0.00125 206
1 0.151026 0.0183223 0.00153569 -0.0472202 -0.0338085 -0.263727 0.00125 207
1 0.284599 0.139723 0.00133974 0.0116171 -0.00949461 -0.225321 0.00125 208
1 0.161445 0.0563999 0.00173406 -0.0658123 -0.0218313 -0.181271 0.00125 209
1 0.233527 0.356473 0.0013817 0.015453 0.00546917 0.155395 0.00125 210
1 0.347825 0.022087 0.00156308 -0.0173988 0.0366156 -0.242265 0.00125 211
1 0.111626 0.188805 0.00132496 0.00514516 -0.00534605 0.177822 0.00125 212
1 0.356379 0.255357 0.00137138 -0.0115456 0.00948348 -0.200468 0.00125 213
1 0.062561 0.176807 0.00198564 0.00019548 0.0452076 -0.0870252 0.00125 214
1 0.194286 0.36757 0.00127785 -0.0116577 0.00172321 0.191998 0.00125 215
1 0.123594 0.183199 0.00207136 -0.00581903 -0.0342925 -0.199177 0.00125 216
1 0.217004 0.102915 0.00163355 -0.0423989 0.00234784 -0.174359 0.00125 217
1 0.0264207 0.200386 0.00151416 -0.0172531 0.0668216 0.0347217 0.00125 218
1 0.109742 0.219472 0.00134551 0.00940768 0.0308498 0.138863 0.00125 219
1 0.216527 0.262371 0.00144188 0.0239924 -0.00599116 -0.219796 0.00125 220
1 0.0527449 0.239001 0.00124038 0.0117951 0.0164157 -0.207635 0.00125 221
1 0.235944 0.119944 0.00123869 0.00438441 0.00360428 0.176018 0.00125 222
1 0.0928796 0.317284 0.0019227 -0.00355544 -0.0398287 -0.20108 0.00125 223
1 0.250367 0.361025 0.00211886 -0.017612 -0.000710068 -0.0229563 0.00125 224
1 0.0520521 0.374749 0.00153083 -0.00283384 -0.00759099 -0.201798 0.00125 225
1 0.33151 0.282473 0.00138403 0.0413546 -0.0532908 -0.247609 0.00125 226
1 0.224022 0.335471 0.00211141 0.00521523 -0.0121007 -0.00160719 0.00125 227
1 0.372609 0.132154 0.0012553 0.0147112 0.026057 0.196147 0.00125 228
1 0.306447 0.341063 0.00146945 -0.0217479 0.0440801 -0.122227 0.00125 229
1 0.25209 0.21272 0.00220091 -0.0163328 -0.00749869 -0.0531753 0.00125 230
1 0.129094 0.0559423 0.00196804 -0.0130957 -0.0370846 -0.0713032 0.00125 231
1 0.270872 0.224118 0.00232385 -0.0240295 0.0214299 -0.0619479 0.00125 232
1 0.258572 0.0986839 0.0014204 -0.00416568 -0.00205678 -0.19176 0.00125 233
1 0.158208 0.24366 0.00175002 0.0161593 0.0109721 -0.0240383 0.00125 234
1 0.168093 0.16371 0.00124592 -0.0184051 -0.0140325 -0.198592 0.00125 235
1 0.0842781 0.210329 0.00131402 -0.0103082 -0.00300018 -0.249649 0.00125 236
1 0.20871 0.212426 0.00157291 0.00447768 0.022568 -0.195384 0.00125 237
1 0.20347 0.0732142 0.00162708 -0.00256229 0.0351942 -0.179319 0.00125 238
1 0.225024 0.306106 0.00158511 -0.002031 0.0168816 -0.252614 0.00125 239
1 0.14 0.101519 0.00123082 -0.0118872 -0.00925547 0.042999 0.00125 240
1 0.135518 0.194443 0.00164535 -0.0191678 0.0243662 0.209438 0.00125 241
1 0.215604 0.141442 0.00141905 -0.00068605 0.0161994 -0.188609 0.00125 242
1 0.102904 0.297323 0.00162701 0.000725778 -0.00933077 0.189873 0.00125 243
1 0.216203 0.289239 0.00161207 -0.0451693 0.0214155 -0.194257 0.00125 244
1 0.242051 0.0843129 0.00140624 -0.0197141 0.000526506 -0.23962 0.00125 245
1 0.127333 0.174201 0.00167876 0.0130627 -0.0171958 -0.0866974 0.00125 246
1 0.259451 0.123756 0.00178321 -0.00168316 -0.00381651 -0.164312 0.00125 247
1 0.177663 0.0360998 0.00157358 0.00905382 0.0302043 0.0950655 0.00125 248
1 0.245529 0.234594 0.00123956 -0.0165033 0.0165769 -0.197474 0.00125 249
1 0.185687 0.219158 0.00128408 -0.00921562 -0.00290372 0.187696 0.00125 250
1 0.301893 0.329896 0.00159154 0.01592 -0.0311059 -0.106518 0.00125 251
1 0.318228 0.320572 0.00136333 0.00471478 0.00468328 -0.0370039 0.00125 252
1 0.157523 0.0838471 0.00151895 -0.00485104 0.00486176 -0.233554 0.00125 253
1 0.0439609 0.294155 0.0013151 0.0213327 0.0165706 0.160507 0.00125 254
1 0.13447 0.101257 0.0013357 0.0200521 -0.0125955 -0.298876 0.00125 255
1 0.183026 0.218868 0.00147947 0.015293 -0.0225138 0.122322 0.00125 256
1 0.337423 0.118089 0.00124309 -0.0120452 -0.0124161 -0.265811 0.00125 257
1 0.291569 0.232503 0.0015011 0.00330629 0.00933136 -0.237888 0.00125 258
1 0.307414 0.162919 0.00166167 -0.0207155 -0.0157533 -0.167751 0.00125 259
1 0.126462 0.00842476 0.0023524 -0.00982247 0.00124718 -0.0612361 0.00125 260
1 0.0625813 0.330693 0.00163341 0.0067412 0.0227314 0.0934154 0.00125 261
1 0.145365 0.0788085 0.00124988 0.00898895 -0.00497618 0.0586832 0.00125 262
1 0.155093 0.345081 0.00163796 -0.0176674 -0.0251179 -0.231468 0.00125 263
1 0.0501259 0.307614 0.00161071 -0.0170824 -0.0276253 -0.18745 0.00125 264
1 0.339343 0.0717369 0.00145802 -0.00944197 0.00444621 -0.239216 0.00125 265
1 0.118033 0.0908946 0.0013142 0.00710451 0.0068839 -0.277269 0.00125 266
1 0.0197471 0.0922967 0.00130171 0.053526 -0.0671424 0.166102 0.00125 267
1 0.303851 0.0277455 0.00128834 -0.010832 -0.027679 -0.288114 0.00125 268
1 0.247773 0.326047 0.00126432 -0.0239879 0.00983911 -0.19347 0.00125 269
1 0.132347 0.288078 0.00178399 -0.0172913 -0.062206 -0.170308 0.00125 270
1 0.0868288 0.178175 0.0013253 -0.0109763 -0.00779044 0.172927 0.00125 271
1 0.0214764 0.165119 0.0012591 0.0200647 0.0317924 -0.313482 0.00125 272
1 0.141408 0.279908 0.00146501 0.0102591 0.00479443 -0.231148 0.00125 273
1 0.373973 0.359467 0.00203557 0.00287483 -0.00579608 0.00091895 0.00125 274
1 0.0747525 0.287925 0.00157796 0.00784062 -0.041197 -0.272839 0.00125 275
1 0.0390705 0.213464 0.00153938 0.0167584 0.0172155 0.109497 0.00125 276
1 0.26776 0.232489 0.00151288 -0.0246955 0.0293681 0.21238 0.00125 277
1 0.0897025 0.254396 0.00182437 -0.0676078 0.0503733 -0.241744 0.00125 278
1 0.127656 0.318253 0.00173669 0.00766939 0.01572 -0.0891596 0.00125 279
1 0.343511 0.0343381 0.0017239 0.0147678 -0.00247402 -0.187114 0.00125 280
1 0.199541 0.249979 0.0015876 0.0402427 -0.000413715 -0.200897 0.00125 281
1 0.27821 0.276525 0.00167205 -0.0197974 0.0129767 -0.228741 0.00125 282
1 0.374465 0.0136396 0.00231762 0.00878828 0.016254 -0.128477 0.00125 283
1 0.129934 0.217018 0.00166585 -0.0182496 0.000318454 0.0879078 0.00125 284
1 0.185 0.0204828 0.00202504 0.0134062 0.0155051 -0.0638098 0.00125 285
1 0.057747 0.152522 0.00163959 0.00853126 -0.00961961 0.158646 0.00125 286
1 0.196077 0.230092 0.00158106 -0.0102623 0.0300975 0.100594 0.00125 287
1 0.30729 0.148164 0.00149414 -0.0317738 0.0416618 -0.228899 0.00125 288
1 0.0584211 0.146746 0.00123997 -0.01393 -0.00826285 0.199786 0.00125 289
1 0.300872 0.00852809 0.00141402 0.012305 0.00842143 0.219977 0.00125 290
1 0.0402915 0.177718 0.00176743 -0.0065989 0.0532163 -0.168357 0.00125 291
1 0.0732278 0.151226 0.00167653 0.0186746 0.00155762 0.0956033 0.00125 292
1 0.0686973 0.0530078 0.0012295 -0.0169037 0.0133509 0.0709673 0.00125 293
1 0.0384236 0.277027 0.00155193 -0.0336569 0.0202692 0.14064 0.00125 294
1 0.0298082 0.137093 0.00149035 0.0236547 -0.0196319 -0.09926 0.00125 295
1 0.293873 0.364962 0.00129394 -0.0370305 -0.00150561 0.188377 0.00125 296
1 0.372465 0.127758 0.00161791 -0.00902387 0.0181768 -0.186809 0.00125 297
1 0.0991976 0.300284 0.00149838 0.0706046 -0.0562778 0.111495 0.00125 298
1 0.100116 0.156472 0.00146025 -0.00427882 0.00396428 -0.207279 0.00125 299
1 0.174686 0.103058 0.00150006 -0.011797 0.00213445 -0.23219 0.00125 300
1 0.16416 0.332587 0.00136033 0.00634762 0.00303709 -0.237959 0.00125 301
1 0.189776 0.242263 0.00240116 -0.0249117 -0.00813869 -0.0593206 0.00125 302
1 0.130867 0.000455339 0.00213324 0.0227787 -0.0191681 -0.103512 0.00125 303
1 0.121673 0.0627074 0.001417 0.00149036 -0.0247813 0.235974 0.00125 304
1 0.317399 0.288034 0.00160985 0.00586848 -0.0139345 -0.176281 0.00125 305
1 0.0178831 0.345798 0.00167114 0.0132303 -0.0530319 0.0525081 0.00125 306
1 0.290283 0.312144 0.00136387 -0.0275692 -0.0188702 0.177419 0.00125 307
1 0.241719 0.115458 0.00134855 0.013462 0.0102395 0.2429 0.00125 308
1 0.182929 0.236259 0.00173961 -0.0200129 -0.00437666 0.112497 0.00125 309
1 0.30407 0.0626464 0.00154045 0.00440805 -0.0327075 0.0902719 0.00125 310
1 0.0642231 0.0771317 0.00126119 0.0182156 -0.0124688 0.25766 0.00125 311
1 0.0379121 0.0514787 0.00204012 -0.0130986 0.000759154 -0.0153817 0.00125 312
1 0.174376 0.260325 0.0015689 -0.014505 -0.01132 -0.287733 0.00125 313
1 0.0156145 0.0464117 0.00195913 0.00913097 -0.0517518 -0.149755 0.00125 314
1 0.320448 0.273158 0.00144995 -0.0184429 -0.0107637 -0.0983644 0.00125 315
1 0.332947 0.193015 0.00123312 -0.0232247 -0.00397894 -0.117279 0.00125 316
1 0.0811551 0.269236 0.00181858 0.000591486 -0.00403256 -0.214689 0.00125 317
1 0.145968 0.102409 0.00214252 0.00518216 -0.0100959 -0.00985464 0.00125 318
1 0.0615306 0.207841 0.00123672 -0.00527203 0.0138949 -0.178821 0.00125 319
1 0.111007 0.141756 0.00124447 -0.0370303 0.0143334 -0.228115 0.00125 320
1 0.13217 0.33571 0.00155578 -0.0069761 0.0111617 -0.225255 0.00125 321
1 0.112455 0.00268129 0.00123202 -0.0191115 0.00305609 0.0796387 0.00125 322
1 0.271126 0.172608 0.00133961 -0.0239163 0.0200106 0.173952 0.00125 323
1 0.0437605 0.183252 0.00190316 0.0583092 0.0602391 -0.22607 0.00125 324
1 0.0485097 0.335039 0.00141258 0.0106969 -0.0316431 -0.191219 0.00125 325
1 0.175524 0.243192 0.00129724 -0.000714538 0.00970667 -0.23452 0.00125 326
1 0.073116 0.0795948 0.00127128 -0.0349693 0.00317488 0.179739 0.00125 327
1 0.138876 0.187553 0.00177236 -0.0175677 -0.00985229 -0.232906 0.00125 328
1 0.0684055 0.24845 0.00132184 -0.00375913 -0.000496109 -0.249314 0.00125 329
1 0.372323 0.167905 0.00125805 0.000814709 -0.00601375 -0.0901291 0.00125 330
1 0.123537 0.19779 0.00130056 -0.00763835 0.00243074 -0.312685 0.00125 331
1 0.0874546 0.0966753 0.00203369 -0.0088207 0.00344753 -0.0060173 0.00125 332
1 0.28422 0.280989 0.00245272 -0.0308696 0.00546455 -0.0700699 0.00125 333
1 0.249099 0.0313688 0.00137868 0.0114137 -0.000188912 -0.201402 0.00125 334
1 0.304356 0.307726 0.00156716 0.064276 0.0263961 -0.184059 0.00125 335
1 0.358096 0.369845 0.00143215 0.0158556 0.0256327 -0.237508 0.00125 336
1 0.359017 0.314599 0.00133094 0.00898676 -0.0189257 0.199209 0.00125 337
1 0.32273 0.190854 0.0013723 0.00485122 -0.0442045 0.193199 0.00125 338
1 0.206489 0.157815 0.00126757 -0.00333046 0.000437029 0.189801 0.00125 339
1 0.168784 0.29483 0.00158675 0.0103497 -0.0227092 -0.178937 0.00125 340
1 0.247689 0.352243 0.00142584 -0.0115776 -0.00773547 -0.237463 0.00125 341
1 0.0616469 0.20492 0.0018733 0.0080591 0.000437277 -0.208602 0.00125 342
1 0.197866 0.0735591 0.001591 0.00859413 0.00506986 -0.182808 0.00125 343
1 0.0753632 0.16351 0.00197589 -0.0094507 -0.0214509 -0.012638 0.00125 344
1 0.238646 0.293277 0.00207088 0.0213586 0.00186691 -0.188349 0.00125 345
1 0.171364 0.0475152 0.00140867 -0.0128972 0.00346412 -0.235959 0.00125 346
1 0.268636 0.264934 0.00155817 -0.0195943 -0.00111571 -0.200052 0.00125 347
1 0.00555343 0.279977 0.00145884 0.00806558 -0.00938352 0.131703 0.00125 348
1 0.148779 0.142817 0.00171762 -0.00865468 -0.000513864 -0.222344 0.00125 349
1 0.299167 0.327638 0.00151514 0.0011111 0.00532034 0.0651491 0.00125 350
1 0.194122 0.372835 0.00222129 -0.00551481 -0.0461296 -0.154468 0.00125 351
1 0.270899 0.350951 0.00129349 -0.0231461 0.00302397 -0.229743 0.00125 352
1 0.255971 0.299382 0.0013882 -0.0206132 -0.0278496 -0.161215 0.00125 353
1 0.185743 0.109163 0.0017335 0.0359556 0.00083131 -0.219115 0.00125 354
1 0.0990154 0.175962 0.00132918 0.0231976 -0.00685092 -0.231611 0.00125 355
1 0.0335699 0.284251 0.00232996 0.035467 0.0193584 -0.124327 0.00125 356
1 0.0806588 0.232092 0.00123346 -0.0134555 0.0135204 0.184061 0.00125 357
1 0.032284 0.131501 0.00151014 0.0570819 -0.00254862 0.111866 0.00125 358
1 0.35475 0.069746 0.0024481 -0.0378674 -0.0235428 0.0258958 0.00125 359
1 0.33819 0.367212 0.00213391 0.00380645 0.0163475 -0.156973 0.00125 360
1 0.12536 0.365768 0.00132642 0.0333925 0.0219096 0.151058 0.00125 361
1 0.268115 0.0725465 0.00161408 -0.0176861 -0.00828366 -0.193805 0.00125 362
1 0.13477 0.318806 0.00123249 -0.0180754 -0.00346699 -0.0260411 0.00125 363
1 0.230523 0.0165896 0.00173851 0.0180315 -0.00376249 -0.226934 0.00125 364
1 0.319634 0.192462 0.00151334 -0.0143135 -0.0236834 -0.189554 0.00125 365
1 0.188794 0.370449 0.00128026 0.0225173 -0.00322213 0.21805 0.00125 366
1 0.097225 0.123705 0.00224793 -0.000719279 -0.0288459 -0.0263557 0.00125 367
1 0.200832 0.299952 0.0024642 -0.070507 0.0155478 -0.00112499 0.00125 368
1 0.358909 0.0134289 0.00184889 -0.00650447 -0.0085959 -0.0757499 0.00125 369
1 0.00982618 0.19859 0.00172312 -0.021485 -0.0120769 -0.0867936 0.00125 370
1 0.0209098 0.322096 0.00138174 0.00860584 0.0089827 0.255417 0.00125 371
1 0.347197 0.2781 0.00126383 -0.0150576 0.0156057 -0.0264131 0.00125 372
1 0.174425 0.159077 0.00174853 -0.00471828 -0.00906048 -0.235284 0.00125 373
1 0.202392 0.246294 0.00178649 0.0093952 -0.00854872 -0.219538 0.00125 374
1 0.174898 0.200084 0.00142398 0.0159836 0.0258233 -0.232303 0.00125 375
1 0.283384 0.292174 0.00152557 -0.0227499 0.0360035 -0.181942 0.00125 376
1 0.1575 0.156945 0.00240508 -0.0120149 0.0068176 -0.0362722 0.00125 377
1 0.080025 0.0941144 0.00143586 0.00417125 0.015393 -0.0877365 0.00125 378
1 0.0632993 0.308676 0.00176523 0.00254547 -0.0128243 -0.225832 0.00125 379
1 0.150892 0.121099 0.00134808 0.022108 0.0192383 -0.212556 0.00125 380
1 0.0953128 0.295704 0.00134294 -0.014503 -0.0221181 -0.238949 0.00125 381
1 0.162819 0.121614 0.00170313 -0.0150956 0.0397776 -0.149981 0.00125 382
1 0.147106 0.10464 0.00210226 0.0332057 -0.0666042 -0.165674 0.00125 383
1 0.205652 0.0638163 0.00147398 0.00604477 0.0142251 -0.202777 0.00125 384
1 0.265565 0.0759678 0.00164 -0.00485844 -0.0126601 -0.230797 0.00125 385
1 0.067431 0.069927 0.00231097 -0.0196576 -0.020795 -0.0338355 0.00125 386
1 0.228809 0.0215705 0.00144999 0.00549027 -0.00975269 -0.24872 0.00125 387
1 0.00210383 0.00275878 0.00170262 0.0122139 0.00905811 0.0964352 0.00125 388
1 0.0574089 0.299385 0.00131336 -0.000580695 0.00885284 0.217152 0.00125 389
1 0.0307726 0.295213 0.00173344 -0.0149959 -0.0297723 -0.223343 0.00125 390
1 0.125224 0.0351424 0.00143194 -0.00474683 0.00990776 0.236045 0.00125 391
1 0.372616 0.155817 0.00169772 0.00695836 0.0155975 0.0990072 0.00125 392
1 0.316994 0.0396055 0.00131605 -0.0174906 0.0048027 -0.31125 0.00125 393
1 0.159363 0.1656 0.00180329 0.0164511 -0.00154189 -0.0358553 0.00125 394
1 0.163448 0.241897 0.00143518 0.0190705 0.00199946 -0.20029 0.00125 395
1 0.0706066 0.0753081 0.00160477 -0.0233414 0.0206632 -0.193629 0.00125 396
1 0.00356736 0.178852 0.00166859 -0.0116844 -0.0270871 0.0864024 0.00125 397
1 0.32518 0.155201 0.00155946 0.0135726 -0.00478952 -0.0974178 0.00125 398
1 0.233231 0.00102212 0.0014748 0.00182297 0.0233759 0.161957 0.00125 399