ITEM: TIMESTEP
1000000
ITEM: NUMBER OF ATOMS
10000
ITEM: BOX BOUNDS pp pp ff
0.0000000000000000e+00 2.9015251624999999e-01
0.0000000000000000e+00 2.9015251624999999e-01
-1.2500000000000001e-02 1.2500000000000001e-02
ITEM: ATOMS type x y z vx vy vz radius id
1 0.222035 0.268967 0.0015546 -0.0485174 -0.0109508 -0.207304 0.00125 1
1 0.26426 0.0562672 0.00168299 -0.000655747 0.041582 -0.132105 0.00125 2
1 0.242076 0.245733 0.00196254 -0.0139698 0.0592021 -0.197105 0.00125 3
1 0.0658277 0.0662747 0.00123555 0.0269648 0.00297934 0.212881 0.00125 4
1 0.135102 0.186503 0.00135596 0.0525496 -0.045862 -0.138066 0.00125 5
1 0.187511 0.206146 0.00126013 -0.0541976 0.0328015 -0.229877 0.00125 6
1 0.0136139 0.182296 0.00184887 -0.00124796 -0.00467623 -0.0536909 0.00125 7
1 0.28201 0.254498 0.00144998 -0.0610358 -0.0643303 -0.200405 0.00125 8
1 0.162096 0.0607208 0.00139338 0.042699 0.021969 0.137425 0.00125 9
1 0.103828 0.165436 0.00213327 -0.00877181 -0.0327031 -0.00508203 0.00125 10
1 0.140346 0.256708 0.0012692 0.0541919 0.00930559 0.158003 0.00125 11
1 0.255859 0.108283 0.0017153 -0.0222085 0.0350424 -0.167892 0.00125 12
1 0.171809 0.215861 0.00138605 -0.0594067 0.0601418 -0.072455 0.00125 13
1 0.0935837 0.0785115 0.00133774 -0.0155267 -0.050893 -0.185222 0.00125 14
1 0.100351 0.235957 0.00202289 0.0331627 -0.0707532 -0.0598461 0.00125 15
1 0.146813 0.164032 0.00162004 -0.0683591 -0.0433602 -0.203309 0.00125 16
1 0.119635 0.125987 0.00171817 0.0218196 0.0867411 -0.215445 0.00125 17
1 0.247032 0.0139686 0.00149299 0.0414403 0.0136 0.0753951 0.00125 18
1 0.126462 0.178651 0.0021386 0.000428461 -0.0675529 -0.171363 0.00125 19
1 0.278224 0.0211352 0.00126207 -0.000834623 -0.0103029 0.183854 0.00125 20
1 0.023364 0.0468442 0.00159302 0.00466188 0.0547612 -0.211106 0.00125 21
1 0.206679 0.138797 0.00159301 -0.0268065 -0.0156621 -0.148016 0.00125 22
1 0.175658 0.0446669 0.00157506 -0.0658592 -0.00144268 -0.169082 0.00125 23
1 0.224333 0.0914267 0.0012708 -0.071694 -0.018671 0.059529 0.00125 24
1 0.0822833 0.171309 0.00124849 0.060806 0.0276874 0.012838 0.00125 25
1 0.149678 0.227364 0.00179578 0.00824414 -0.00601535 -0.0936991 0.00125 26
1 0.104442 0.14081 0.00123791 -0.0201474 -0.00344528 0.154478 0.00125 27
1 0.0381452 0.118967 0.0012471 -0.0322687 -0.00298399 0.120343 0.00125 28
1 0.286929 0.28602 0.00126932 -0.0319794 0.00356369 -0.227992 0.00125 29
1 0.190074 0.237847 0.00129594 0.068798 -0.0357307 0.0462353 0.00125 30
1 0.0558099 0.0471782 0.00228645 -0.00412475 0.0458217 0.0149538 0.00125 31
1 0.240676 0.0275513 0.00171252 0.0281806 -0.00109243 -0.148838 0.00125 32
1 0.125692 0.246657 0.00142006 -0.0274756 -0.016441 -0.242651 0.00125 33
1 0.0511334 0.0840161 0.00130231 0.0129762 -0.0362477 0.0108685 0.00125 34
1 0.269831 0.278665 0.00139156 -0.00739444 0.0237018 0.153195 0.00125 35
1 0.112951 0.0081384 0.00238516 0.049362 0.0719811 -0.0481722 0.00125 36
1 0.152003 0.290042 0.0021329 -0.0343792 0.00537301 -0.00294076 0.00125 37
1 0.135058 0.0980243 0.00148777 -0.00917943 0.0172774 -0.251399 0.00125 38
1 0.016382 0.166413 0.00138426 -0.0147749 0.0691986 0.250112 0.00125 39
1 0.181243 0.11896 0.00148935 -0.011616 0.0311144 0.196856 0.00125 40
1 0.259285 0.0302652 0.00249116 -0.0581636 0.0115758 -0.0384391 0.00125 41
1 0.188186 0.103641 0.00128782 0.0259191 0.0212112 -0.298294 0.00125 42
1 0.282214 0.184927 0.00166126 -0.0128246 0.077052 0.102708 0.00125 43
1 0.202358 0.272915 0.00198015 0.0167828 0.0198026 -0.227517 0.00125 44
1 0.211898 0.239286 0.00147952 0.0185113 0.0284971 -0.245799 0.00125 45
1 0.0668221 0.00973112 0.00176127 -0.104389 0.00652976 -0.246676 0.00125 46
1 0.159496 0.0718065 0.00184253 0.00576725 0.0351949 -0.128504 0.00125 47
1 0.201708 0.190823 0.0016646 0.0124215 -0.0763354 -0.199312 0.00125 48
1 0.144633 0.0745743 0.00139424 0.0667491 0.0391483 -0.17316 0.00125 49
1 0.117485 0.13564 0.00154071 0.0039471 0.0204553 -0.192933 0.00125 50
1 0.0347587 0.00523734 0.00186204 -0.00448699 0.00807679 -0.0666734 0.00125 51
1 0.271249 0.167418 0.00240406 0.0669411 0.00795005 -0.0241278 0.00125 52
1 0.240376 0.189988 0.00179947 0.00458397 -0.0244159 -0.197124 0.00125 53
1 0.266418 0.118951 0.00130261 -0.0460019 -0.0157004 -0.0421214 0.00125 54
1 0.176069 0.22531 0.00140846 -0.0383848 0.0157422 0.148669 0.00125 55
1 0.171299 0.0584822 0.0015991 -0.0164359 -0.0330684 -0.182869 0.00125 56
1 0.161443 0.285994 0.0013653 -0.0152137 0.00998434 -0.274099 0.00125 57
1 0.12437 0.190312 0.00139554 -0.029833 0.00796503 -0.210525 0.00125 58
1 0.0018721 0.090484 0.00182165 -0.0551152 -0.0579023 -0.193699 0.00125 59
1 0.129162 0.0809776 0.00141407 -0.0320783 0.0132267 -0.293469 0.00125 60
1 0.219725 0.131777 0.0023344 -0.036472 0.0356729 -0.12114 0.00125 61
1 0.0958416 0.208463 0.00165253 -0.00197592 -0.0210304 -0.253172 0.00125 62
1 0.244209 0.0520875 0.00127496 -0.0873415 0.0267472 -0.0103192 0.00125 63
1 0.0442048 0.27756 0.0022991 -0.0609669 -0.0438261 -0.0897729 0.00125 64
1 0.02857 0.151335 0.00158985 0.0926478 -0.0706865 0.0760024 0.00125 65
1 0.208841 0.0429737 0.00151525 0.0227841 0.0413048 0.141525 0.00125 66
1 0.209944 0.263558 0.001413 -0.0719481 -0.0249452 -0.126657 0.00125 67
1 0.0817217 0.204597 0.00220324 -0.000683676 -0.0197908 -0.0273817 0.00125 68
1 0.160143 0.00300891 0.00192771 -0.0185375 0.005336 -0.151271 0.00125 69
1 0.0297792 0.0695409 0.00127522 0.0113285 -0.032495 -0.00812391 0.00125 70
1 0.0567959 0.265775 0.00153428 0.0410516 0.0345813 0.181995 0.00125 71
1 0.240297 0.275583 0.00140791 -0.0902473 0.0793769 -0.233242 0.00125 72
1 0.0742218 0.201347 0.00130851 -0.0436795 0.0609955 0.0820906 0.00125 73
1 0.17488 0.282833 0.00203314 0.00290895 -0.0879021 -0.173249 0.00125 74
1 0.0799307 0.166022 0.00160733 -0.00723019 0.0218383 -0.161673 0.00125 75
1 0.131528 0.145176 0.00146585 -0.000639405 -0.00897896 -0.235626 0.00125 76
1 0.0118511 0.18796 0.00147459 -0.0267445 -0.0528422 0.159712 0.00125 77
1 0.122632 0.0973805 0.00168692 -0.0200795 0.0320555 -0.2321 0.00125 78
1 0.123129 0.00459146 0.00161387 0.0173854 0.000267741 -0.177273 0.00125 79
1 0.256517 0.00791786 0.00147449 -0.0096744 0.00937725 0.201168 0.00125 80
1 0.19635 0.101916 0.00143453 0.000397637 -0.0270242 -0.191323 0.00125 81
1 0.102688 0.105993 0.00140136 -0.0393619 0.0427352 -0.213711 0.00125 82
1 0.24583 0.220508 0.00129494 0.0292244 -0.014621 0.0643002 0.00125 83
1 0.135353 0.0704965 0.00132737 0.00689083 -0.0124331 -0.246875 0.00125 84
1 0.171273 0.126826 0.00199451 -0.0156353 -0.0145824 -0.194505 0.00125 85
1 0.183752 0.146783 0.0022355 0.102899 -0.0530355 0.0134613 0.00125 86
1 0.0292079 0.22252 0.00245873 0.0168598 -0.0103668 0.0200568 0.00125 87
1 0.26738 0.185863 0.00251295 0.00239122 0.0024649 0.0125989 0.00125 88
1 0.0469145 0.201556 0.00150027 -0.0343763 0.000368569 -0.108874 0.00125 89
1 0.0272051 0.148802 0.00193266 -0.00644224 0.126034 -0.0770742 0.00125 90
1 0.0701013 0.0443013 0.00202159 -0.0234954 -0.014919 -0.0830398 0.00125 91
1 0.0434195 0.0590637 0.00237598 -0.0466194 -0.0063815 -0.105147 0.00125 92
1 0.06867 0.159721 0.00165041 -0.0402426 -0.0363966 0.129417 0.00125 93
1 0.0602154 0.246372 0.00156217 0.0229236 -0.0112597 -0.187044 0.00125 94
1 0.0907667 0.0729597 0.00185106 -0.0615272 0.0101973 -0.0776738 0.00125 95
1 0.265201 0.25969 0.00211471 -0.0228533 -0.0527871 -0.0781582 0.00125 96
1 0.277196 0.13704 0.00192356 0.0332802 0.0430213 -0.0882637 0.00125 97
1 0.221725 0.157027 0.00209409 -0.0315213 0.0193321 -0.184664 0.00125 98
1 0.255467 0.258107 0.00147764 0.0177238 0.032845 -0.241474 0.00125 99
1 0.2497 0.141461 0.00144141 0.0231807 0.0165569 -0.300851 0.00125 100
1 0.152391 0.0529637 0.00161622 -0.00262739 -0.0436301 -0.0180511 0.00125 101
1 0.00713384 0.268596 0.00135606 -0.0241267 0.0358627 0.069469 0.00125 102
1 0.160219 0.0686755 0.00229055 -0.0103488 -0.0202938 -0.0479231 0.00125 103
1 0.0576671 0.083106 0.00135852 -0.0256199 -0.023424 -0.221527 0.00125 104
1 0.110092 0.0547581 0.00176622 -0.0156995 0.031307 -0.077969 0.00125 105
1 0.25947 0.220488 0.00147629 0.111976 0.0295769 0.0368605 0.00125 106
1 0.115001 0.0159595 0.00151812 -0.0432922 0.0163888 0.200206 0.00125 107
1 0.224924 0.17235 0.00133902 0.0110722 -0.0496937 0.104984 0.00125 108
1 0.14339 0.0608548 0.00199074 -0.0540043 -0.000522661 -0.0454248 0.00125 109
1 0.115761 0.172501 0.00133421 0.0187011 0.0722492 -0.21288 0.00125 110
1 0.0596279 0.140628 0.00123185 0.0505987 0.00131689 -0.102469 0.00125 111
1 0.177478 0.0350185 0.00137405 -0.0234403 -0.0133586 0.151378 0.00125 112
1 0.139116 0.234069 0.00147832 -0.00352805 0.0814302 -0.17278 0.00125 113
1 0.243234 0.148939 0.00150631 -0.0314952 0.00865627 0.0779079 0.00125 114
1 0.0566663 0.0971193 0.00143666 0.00915826 -0.025724 0.157827 0.00125 115
1 0.244325 0.10827 0.00147324 0.0900533 -0.0190053 0.0186454 0.00125 116
1 0.259432 0.105449 0.00158252 0.0527773 0.00353691 -0.209628 0.00125 117
1 0.263741 0.00398249 0.00128986 -0.0133902 -0.0121383 -0.0117664 0.00125 118
1 0.145159 0.197113 0.0013471 0.00875204 -0.0267556 0.222505 0.00125 119
1 0.135179 0.0487462 0.00132988 -0.0236524 -0.039545 0.17649 0.00125 120
1 0.122394 0.0949165 0.00129737 -0.0243932 -0.032579 -0.259575 0.00125 121
1 0.281787 0.233858 0.00139748 -0.0098749 0.0762598 -0.240249 0.00125 122
1 0.225377 0.0879316 0.00147066 0.0283838 -0.0128432 -0.169861 0.00125 123
1 0.236246 0.0748768 0.00236883 -0.00148248 0.0323549 -0.11214 0.00125 124
1 0.210076 0.112831 0.00245262 -0.000354517 0.122402 0.00110977 0.00125 125
1 0.0700003 0.24587 0.00149274 0.0295933 -0.0397781 -0.21645 0.00125 126
1 0.226738 0.0674233 0.00226787 0.011592 -0.0138007 -0.000963393 0.00125 127
1 0.0780513 0.0936226 0.00146633 -0.0136779 0.044341 0.120643 0.00125 128
1 0.189276 0.145602 0.00232106 0.0419853 -0.00152527 -0.130871 0.00125 129
1 0.213537 0.0117195 0.00136421 -0.00795201 -0.00838784 -0.235187 0.00125 130
1 0.165184 0.00885696 0.00140162 0.0464764 -0.000122671 0.0126369 0.00125 131
1 0.00863421 0.200135 0.00184593 -0.0919931 0.0395078 -0.038261 0.00125 132
1 0.228086 0.0727312 0.00139912 -0.0599064 0.0434126 0.0321681 0.00125 133
1 0.216692 0.00707452 0.00126044 -0.0111866 0.0240939 -0.196348 0.00125 134
1 0.249023 0.126498 0.00162202 0.0106995 -0.0395398 -0.213228 0.00125 135
1 0.152785 0.0992966 0.00128341 0.0216073 0.0209695 0.178946 0.00125 136
1 0.0262344 0.0764826 0.00123895 -0.0271693 -0.00451898 0.163635 0.00125 137
1 0.245641 0.0381217 0.00171041 0.0788654 -0.0333202 -0.096813 0.00125 138
1 0.0545895 0.170767 0.00148201 0.0479153 -0.0622222 -0.142318 0.00125 139
1 0.0440848 0.138723 0.00145831 0.010625 -0.0127086 -0.224965 0.00125 140
1 0.207532 0.111438 0.00139137 0.0186075 0.0400684 0.107327 0.00125 141
1 0.0951537 0.163976 0.00157893 0.0459041 -0.000745277 -0.194586 0.00125 142
1 0.0868584 0.142573 0.00207791 -0.0413547 -0.0301124 -0.171284 0.00125 143
1 0.0990428 0.076804 0.00131869 0.0688967 0.0542093 0.169961 0.00125 144
1 0.0601951 0.0843536 0.00248951 -0.0210524 0.00907805 -0.0495459 0.00125 145
1 0.11747 0.0973063 0.00135395 -0.0120251 0.000510892 0.176224 0.00125 146
1 0.210758 0.191633 0.00167275 -0.0161163 0.0778196 0.091451 0.00125 147
1 0.191759 0.19298 0.00236889 -0.0472318 -0.0434913 0.0738177 0.00125 148
1 0.0356681 0.117098 0.00127971 0.0823714 0.0578239 -0.275521 0.00125 149
1 0.0832245 0.237107 0.00161203 -0.0208574 -0.00334745 -0.260621 0.00125 150
1 0.122754 0.0807744 0.00153551 -0.0492533 0.0570028 -0.097902 0.00125 151
1 0.0636442 0.0298859 0.00189786 0.0282733 -0.0507654 -0.0453246 0.00125 152
1 0.0588447 0.255528 0.00218607 -0.0190267 0.00221103 -0.0213932 0.00125 153
1 0.218972 0.171811 0.00129717 -0.0379108 0.0236403 0.0449103 0.00125 154
1 0.25664 0.172249 0.00168839 0.0651392 -0.0421507 -0.149027 0.00125 155
1 0.185179 0.137665 0.0012798 0.00800571 -0.0262492 0.021565 0.00125 156
1 0.0462293 0.213066 0.00228264 -0.042317 -0.0425383 -0.013848 0.00125 157
1 0.287891 0.0801078 0.00145142 -0.011696 0.00375849 -0.23721 0.00125 158
1 0.0384613 0.0640001 0.00145836 0.00229187 -0.0302093 0.248294 0.00125 159
1 0.258667 0.0721884 0.00126773 -0.0183588 0.0136822 -0.232224 0.00125 160
1 0.0632628 0.0382893 0.00165465 0.104932 -0.101767 0.108858 0.00125 161
1 0.0722021 0.152261 0.00143831 -0.00725037 0.0123897 -0.253745 0.00125 162
1 0.130789 0.205095 0.00133756 0.0366264 0.0380983 -0.0037568 0.00125 163
1 0.246571 0.0712442 0.00173843 -0.00275359 -0.00425626 -0.163401 0.00125 164
1 0.233643 0.192076 0.00151332 0.051189 0.103694 -0.218963 0.00125 165
1 0.165589 0.22151 0.00151591 -0.00971512 0.0204289 0.131318 0.00125 166
1 0.102179 0.276763 0.0013684 -0.0507748 -0.0287235 -0.257635 0.00125 167
1 0.156661 0.211525 0.00172308 -0.00371297 -0.00575259 -0.216829 0.00125 168
1 0.128316 0.070993 0.0021991 -0.0258422 0.0559611 -0.0661929 0.00125 169
1 0.0186424 0.170598 0.00226459 0.0348207 0.0256924 -0.0340908 0.00125 170
1 0.258895 0.118513 0.00147512 0.0299849 -0.0119725 0.145788 0.00125 171
1 0.142588 0.19784 0.00132601 -0.0797662 -0.000967382 0.166103 0.00125 172
1 0.0104124 0.0561663 0.00235321 -0.00969354 -0.026087 -0.000248908 0.00125 173
1 0.25046 0.0345509 0.00149538 -0.0267558 0.00106118 0.140046 0.00125 174
1 0.0266301 0.16298 0.00127117 0.00824714 -0.00755013 0.0127045 0.00125 175
1 0.250823 0.275217 0.00135182 0.00426278 0.00314617 -0.211458 0.00125 176
1 0.172532 0.191768 0.00169041 0.0036573 -0.019254 -0.177994 0.00125 177
1 0.230054 0.251389 0.00176995 -0.0673627 0.101203 -0.0599553 0.00125 178
1 0.18722 0.0854667 0.00146481 0.0127763 -0.00172042 -0.115052 0.00125 179
1 0.060138 0.174046 0.00128531 0.00523828 0.0242557 -0.275506 0.00125 180
1 0.0764496 0.0128988 0.00127061 -0.00926297 0.0177427 0.0391093 0.00125 181
1 0.170864 0.0476603 0.00195619 0.0429867 -0.0151119 -0.0713001 0.00125 182
1 0.244688 0.236726 0.00147489 -0.0119476 -0.037591 -0.273188 0.00125 183
1 0.0227482 0.257613 0.00133715 0.0151066 -0.00429864 -0.215586 0.00125 184
1 0.105537 0.0959572 0.00138492 0.00292421 0.0212055 -0.180403 0.00125 185
1 0.157672 0.009056 0.00142183 -0.000980334 -0.00915092 -0.201158 0.00125 186
1 0.28518 0.0782415 0.00172798 0.00414636 -0.0263513 -0.22981 0.00125 187
1 0.142206 0.271054 0.00250811 0.0101138 -0.0164792 -0.0234329 0.00125 188
1 0.287688 0.11928 0.00133467 0.0224835 -0.0522821 0.063051 0.00125 189
1 0.232702 0.0205192 0.00182287 0.0127474 -0.027491 -0.219796 0.00125 190
1 0.26637 0.237468 0.00130225 0.00244544 -0.00243718 0.16428 0.00125 191
1 0.178708 0.119681 0.00168693 0.0433371 -0.0129804 0.126065 0.00125 192
1 0.25936 0.0557777 0.00159782 0.0307672 0.00643906 -0.157241 0.00125 193
1 0.224194 0.191729 0.0013494 0.0121575 -0.00797557 0.250513 0.00125 194
1 0.114758 0.0957291 0.00124782 -0.0370463 -0.00718492 0.196964 0.00125 195
1 0.0768249 0.05829 0.00175211 0.0347257 0.0561602 0.00129023 0.00125 196
1 0.241748 0.209672 0.00134884 -0.0411615 0.0312451 -0.257627 0.00125 197
1 0.155899 0.0859543 0.00153963 -0.0163058 0.00143292 0.0767038 0.00125 198
1 0.163212 0.0544363 0.00148826 -0.00452864 -0.00603534 -0.145909 0.00125 199
1 0.0644187 0.008888 0.00140546 0.00730001 -0.0357312 0.207036 0.00125 200
1 0.0371511 0.0526444 0.00161064 0.0462242 0.00548719 -0.246059 0.00125 201
1 0.0330097 0.0625479 0.00140142 -0.0338458 0.0558173 0.150987 0.00125 202
1 0.00710457 0.0109083 0.00138068 0.0228933 0.0229579 -0.230959 0.00125 203
1 0.142137 0.0699586 0.00161105 -0.0626182 -0.109317 -0.0885132 0.00125 204
1 0.0493458 0.0318351 0.0015386 0.0242877 -0.024549 -0.198713 0.00125 205
1 0.0781144 0.27047 0.00145432 -0.0252173 -0.0507251 -0.134627 0.00125 206
1 0.230452 0.282348 0.00130942 -0.00989643 0.0184975 -0.214325 0.00125 207
1 0.285509 0.0491504 0.00128443 -0.01399 0.0240754 -0.266815 0.00125 208
1 0.150164 0.204059 0.00179562 -0.0411245 -0.0311814 -0.250243 0.00125 209
1 0.0563215 0.11568 0.0019804 0.0383777 0.042218 -0.195179 0.00125 210
1 0.239798 0.220402 0.00186418 -0.0238879 -0.014449 -0.0344636 0.00125 211
1 0.26144 0.0430474 0.00195139 -0.0216647 0.000246307 -0.0833875 0.00125 212
1 0.0738091 0.274305 0.00153819 0.0915602 -0.010674 -0.20585 0.00125 213
1 0.138107 0.249884 0.00124998 -0.0190646 -0.0140327 0.0774694 0.00125 214
1 0.235875 0.0157315 0.00185215 -0.045769 0.108476 -0.146291 0.00125 215
1 0.0134786 0.0273878 0.00172937 0.00126516 -0.0247628 -0.110583 0.00125 216
1 0.00358117 0.261738 0.00216628 -0.00846388 -0.0450342 -0.0722843 0.00125 217
1 0.0961223 0.098696 0.00138338 -0.0178291 -0.0230183 -0.133065 0.00125 218
1 0.121709 0.190233 0.0022777 -0.0191946 -0.0188895 -0.037691 0.00125 219
1 0.106326 0.112898 0.00207942 -0.00841619 0.0031757 -0.181137 0.00125 220
1 0.157843 0.25745 0.0016629 0.0182787 -0.0467604 -0.220926 0.00125 221
1 0.0214222 0.0521916 0.0017595 -0.0598958 -0.00317736 -0.220295 0.00125 222
1 0.0498784 0.00457385 0.00212838 -0.0485101 0.0193509 -1.37494e-05 0.00125 223
1 0.090902 0.151047 0.00196672 0.00810197 -0.000107174 -0.0347028 0.00125 224
1 0.202048 0.254208 0.00226475 0.0202616 -0.015544 -0.153063 0.00125 225
1 0.117183 0.080415 0.00150641 0.0219411 0.0454161 -0.159689 0.00125 226
1 0.187944 0.0128959 0.00133439 -0.00498052 -0.0176641 -0.281918 0.00125 227
1 0.056574 0.0185086 0.00136685 -0.0427837 0.0187311 -0.158169 0.00125 228
1 0.0221407 0.275521 0.00140865 -0.00536905 -0.000513415 -0.263362 0.00125 229
1 0.227126 0.0776155 0.00135473 0.0456276 -0.00144736 -0.235553 0.00125 230
1 0.091961 0.268279 0.00124689 -0.0176165 -0.00558265 0.100664 0.00125 231
1 0.109495 0.282559 0.00137 0.0619922 -0.0572819 -0.21891 0.00125 232
1 0.0599386 0.195917 0.00171707 -0.026687 0.00870014 -0.252662 0.00125 233
1 0.212479 0.158007 0.00140898 0.0162911 -0.017729 -0.247614 0.00125 234
1 0.157056 0.174055 0.00233752 -0.00118121 0.0313724 -0.0412761 0.00125 235
1 0.153781 0.282108 0.00165926 0.0915672 -0.0790262 -0.267067 0.00125 236
1 0.270607 0.210887 0.0012314 -0.00059289 -0.00968059 -0.187627 0.00125 237
1 0.26065 0.265411 0.00153041 0.0360204 -0.00222001 0.112811 0.00125 238
1 0.0611884 0.0398029 0.0017816 0.0116714 0.0261819 -0.116854 0.00125 239
1 0.209204 0.153866 0.00239376 -0.00499 0.0129771 -0.00998158 0.00125 240
1 0.155211 0.275766 0.00209113 0.0129756 -0.0294641 -0.0727563 0.00125 241
1 0.0953974 0.238588 0.00165582 0.0473724 0.0442687 -0.0887788 0.00125 242
1 0.201848 0.196253 0.00134652 -0.0625077 0.0988228 0.0704737 0.00125 243
1 0.130996 0.260343 0.00133573 -0.0234705 -0.0308412 -0.0525403 0.00125 244
1 0.00272057 0.204248 0.00156604 0.0103356 -0.0420376 0.138109 0.00125 245
1 0.143764 0.218572 0.00219401 -0.0043737 0.0430049 -0.0729665 0.00125 246
1 0.265985 0.177806 0.00241323 -0.036722 0.0104173 0.000992868 0.00125 247
1 0.105431 0.0727801 0.0017883 0.0311502 0.0469718 -0.0934759 0.00125 248
1 0.187139 0.0275823 0.00144801 -0.0433602 0.0086772 0.200695 0.00125 249
1 0.232841 0.242606 0.00164838 -0.0113298 -0.0187281 -0.113702 0.00125 250
1 0.0274643 0.0681757 0.00195876 -0.0341155 0.0243521 -0.191095 0.00125 251
1 0.192761 0.252986 0.00243157 -0.0261311 0.000748124 -0.0339785 0.00125 252
1 0.211746 0.163332 0.00159352 -0.0822893 9.30087e-06 -0.218948 0.00125 253
1 0.079539 0.211832 0.00154617 -0.0183389 0.0449553 0.136127 0.00125 254
1 0.13299 0.173769 0.00190909 0.0265535 0.00473894 -0.238238 0.00125 255
1 0.131633 0.124174 0.00181014 -0.0065095 -0.018852 -0.129509 0.00125 256
1 0.110153 0.071885 0.00168342 0.013565 0.000694472 -0.0846467 0.00125 257
1 0.207419 0.23344 0.00232664 0.0234321 0.0225547 -0.116559 0.00125 258
1 0.217908 0.0604512 0.00140668 -0.0101863 0.0310608 0.230506 0.00125 259
1 0.0594677 0.239987 0.00136323 0.0341353 0.0441094 -0.252414 0.00125 260
1 0.174665 0.193475 0.00193051 -0.0250049 -0.0072504 -0.198436 0.00125 261
1 0.0793747 0.0520349 0.00159537 -0.00622753 -0.00689169 0.0973468 0.00125 262
1 0.193857 0.200359 0.00219198 0.000693809 0.109168 -0.0523214 0.00125 263
1 0.0416149 0.129944 0.00149125 0.0302978 0.0198547 -0.222527 0.00125 264
1 0.0218034 0.278096 0.0021184 -0.0393307 -0.0354895 -0.17895 0.00125 265
1 0.236307 0.0551054 0.00164835 -0.0771493 -0.0172704 -0.192874 0.00125 266
1 0.0698741 0.0953132 0.00141809 0.0444677 0.0141429 0.16452 0.00125 267
1 0.208577 0.168403 0.00159177 -0.0476084 -0.00309213 -0.24509 0.00125 268
1 0.0693178 0.169119 0.00216055 -0.00252408 -0.000113248 -0.106462 0.00125 269
1 0.234556 0.181659 0.001817 0.0857591 -0.0156219 -0.162017 0.00125 270
1 0.0763568 0.0500099 0.00141697 0.00119046 -0.0249616 0.174727 0.00125 271
1 0.121421 0.235256 0.0013691 -0.0116398 -0.0552104 -0.214369 0.00125 272
1 0.206001 0.0337433 0.00128213 0.000764646 -0.0291337 -0.13666 0.00125 273
1 0.170709 0.187298 0.00147283 -0.00996823 -0.0298131 0.123571 0.00125 274
1 0.0832975 0.173743 0.00213652 -0.0393187 0.0155036 -0.193286 0.00125 275
1 0.155057 0.241709 0.00174623 0.00310838 -0.021387 -0.215213 0.00125 276
1 0.213527 0.0614958 0.00156079 0.0545238 0.0215125 0.18574 0.00125 277
1 0.281267 0.00988362 0.00123831 -0.039379 -0.0231306 -0.195648 0.00125 278
1 0.152022 0.260966 0.00152877 0.0171652 -0.00767624 -0.214499 0.00125 279
1 0.023262 0.282484 0.00222947 -0.0455944 0.0249555 0.0154754 0.00125 280
1 0.220552 0.0688977 0.00138859 0.00800599 -0.0272755 -0.199095 0.00125 281
1 0.195015 0.166465 0.00169454 -0.0269393 -0.0305402 -0.171752 0.00125 282
1 0.111415 0.248742 0.00189789 -0.0483649 -0.0615565 -0.0552468 0.00125 283
1 0.237401 0.290128 0.0020899 -0.00332068 0.00564937 -0.0693954 0.00125 284
1 0.0223358 0.0227337 0.00149225 0.0502263 0.017475 -0.206678 0.00125 285
1 0.116457 0.230243 0.00220353 0.00581899 0.0582238 -0.00688702 0.00125 286
1 0.255288 0.0607992 0.00220016 -0.0142937 -0.00441587 -0.171065 0.00125 287
1 0.0156212 0.00661135 0.00136924 0.0272885 0.0343417 -0.247264 0.00125 288
1 0.108642 0.220795 0.00216297 -0.0672477 0.0366154 -0.0115557 0.00125 289
1 0.0236861 0.0498859 0.00142519 0.000795611 0.0255905 -0.181659 0.00125 290
1 0.0513621 0.0367697 0.00191465 -0.0231419 0.0797949 -0.157839 0.00125 291
1 0.067079 0.133665 0.00132149 0.0101225 -0.00989994 -0.0461397 0.00125 292
1 0.0223308 0.0800979 0.00146407 -0.0786675 0.0102035 0.150589 0.00125 293
1 0.196743 0.0588403 0.00222039 0.00825772 -0.0025246 -0.146862 0.00125 294
1 0.13298 0.0617177 0.00153255 0.00549102 0.00410949 -0.0846948 0.00125 295
1 0.140313 0.236566 0.00153764 0.0190379 0.000267816 0.183455 0.00125 296
1 0.0754609 0.160354 0.00213188 0.020659 -0.0156274 -0.0384914 0.00125 297
1 0.173041 0.0427937 0.00149235 0.00859147 -0.0508546 0.224036 0.00125 298
1 0.194529 0.261399 0.00149471 0.0151455 0.0306229 0.1436 0.00125 299
1 0.236903 0.167406 0.00197429 -0.00661642 0.0176532 -0.145029 0.00125 300
1 0.143737 0.0722431 0.00136842 0.0854103 0.0601664 -0.0051107 0.00125 301
1 0.270973 0.170279 0.00141894 -0.00921153 -0.01481 -0.209844 0.00125 302
1 0.142194 0.0366023 0.00137662 0.0364685 -0.020909 0.19052 0.00125 303
1 0.116692 0.153152 0.00140212 -0.0407755 0.0139554 -0.244215 0.00125 304
1 0.0435496 0.1522 0.0014047 0.0229754 -0.0421728 0.23581 0.00125 305
1 0.00853363 0.121768 0.00170285 -0.0319046 0.0177611 -0.197736 0.00125 306
1 0.096627 0.182987 0.00149227 -0.00673931 0.0674026 -0.212119 0.00125 307
1 0.151303 0.173151 0.00162243 -0.000455771 0.00157887 -0.232519 0.00125 308
1 0.114188 0.122445 0.00144261 -0.0263262 0.0459447 -0.100512 0.00125 309
1 0.114189 0.19695 0.0013842 -0.0312931 0.00987234 0.145703 0.00125 310
1 0.220837 0.0361634 0.00154737 -0.00745583 -0.0113258 -0.104842 0.00125 311
1 0.146958 0.259344 0.00183409 0.0705471 -0.0402849 -0.170049 0.00125 312
1 0.0802855 0.26758 0.0013171 0.0589486 0.0751221 0.225017 0.00125 313
1 0.0119174 0.262416 0.00128834 -0.00515512 0.0491463 0.179534 0.00125 314
1 0.103276 0.0573902 0.00167715 -0.0309792 0.0331825 -0.0539456 0.00125 315
1 0.0780075 0.00470345 0.00123842 -0.0127399 0.0305019 -0.217196 0.00125 316
1 0.0449477 0.0389935 0.0013054 -0.00842949 -0.0139494 0.193109 0.00125 317
1 0.216497 0.257446 0.00142191 0.0884536 0.0489049 0.0934761 0.00125 318
1 0.0392822 0.164672 0.00127767 -0.00420676 0.0556982 0.0652451 0.00125 319
1 0.253482 0.285545 0.00123942 0.0258728 0.0314653 -0.0788383 0.00125 320
1 0.280309 0.0969742 0.00218941 0.00541945 0.00158558 -0.0120454 0.00125 321
1 0.125267 0.0483157 0.00143997 -0.0653746 -0.0358053 0.0538304 0.00125 322
1 0.107704 0.208704 0.00146741 0.0208347 0.0232628 -0.189677 0.00125 323
1 0.122674 0.146861 0.00130087 -0.00504215 0.0402774 0.235246 0.00125 324
1 0.0876239 0.163624 0.00184098 0.00269763 0.0604366 -0.144478 0.00125 325
1 0.0198453 0.150497 0.00136145 -0.0209865 0.0427886 0.200591 0.00125 326
1 0.179207 0.22619 0.00139511 0.0164379 -0.0110119 0.226237 0.00125 327
1 0.0268607 0.232338 0.00247525 -0.00955385 -0.0084531 -0.0871915 0.00125 328
1 0.0605586 0.278818 0.00128824 -0.00228592 -0.0105698 -0.0569796 0.00125 329
1 0.0718483 0.181888 0.00164576 0.0341689 -0.0816182 -0.19867 0.00125 330
1 0.0119262 0.1696 0.0024845 0.0243193 -0.0148353 0.00397562 0.00125 331
1 0.0252043 0.101722 0.00143612 0.0628638 -0.0272258 -0.231211 0.00125 332
1 0.0844162 0.231962 0.00226956 -0.00915473 -0.0172132 -0.0158397 0.00125 333
1 0.108625 0.225997 0.00227919 -0.0102024 -0.0242278 -0.129875 0.00125 334
1 0.0912357 0.265448 0.00141246 0.0134145 0.00857054 -0.185162 0.00125 335
1 0.0585762 0.188276 0.00142959 0.00458073 -0.0381768 -0.199373 0.00125 336
1 0.261667 0.0347226 0.00193688 0.000729217 0.00857429 -0.0867766 0.00125 337
1 0.259353 0.159917 0.00131763 -0.0327671 0.0094697 0.198814 0.00125 338
1 0.23744 0.276003 0.00172284 -0.00238851 0.00909717 0.121188 0.00125 339
1 0.119556 0.209486 0.00146829 0.102315 -0.1057 -0.129824 0.00125 340
1 0.0277986 0.201237 0.00200976 -0.0174452 0.00302712 -0.0593418 0.00125 341
1 0.0375286 0.142601 0.00136083 -0.00515214 -0.025837 0.224036 0.00125 342
1 0.0775397 0.210641 0.0024777 0.0182326 0.00879537 -0.0537281 0.00125 343
1 0.252987 0.144916 0.00183797 0.0592702 -0.01596 -0.0690142 0.00125 344
1 0.132964 0.242104 0.00135449 0.0387685 0.0389691 0.0105953 0.00125 345
1 0.166448 0.266557 0.00176182 0.0441421 -0.0577298 -0.0879092 0.00125 346
1 0.199322 0.205958 0.00125295 0.0327047 -0.0739442 -0.245222 0.00125 347
1 0.0576707 0.0603004 0.00199282 -0.0254987 0.0182748 -0.0416356 0.00125 348
1 0.209016 0.163664 0.00130142 0.0377338 0.0707204 0.182613 0.00125 349
1 0.00350111 0.0292253 0.00146758 0.0884241 0.030138 -0.20007 0.00125 350
1 0.247346 0.102576 0.00141753 0.0284779 0.0547192 -0.179387 0.00125 351
1 0.140363 0.23912 0.00150281 0.0226498 -0.00720133 -0.102932 0.00125 352
1 0.076402 0.0221658 0.00169702 0.0757603 -0.0124161 -0.191234 0.00125 353
1 0.22774 0.0626698 0.00157299 0.0124459 0.00188466 -0.249608 0.00125 354
1 0.264885 0.22464 0.00137778 0.0313762 0.0658275 0.157077 0.00125 355
1 0.287262 0.269732 0.00179966 -0.0208553 0.0483399 -0.158559 0.00125 356
1 0.168484 0.0452671 0.00183014 0.0034173 0.0250736 -0.201172 0.00125 357
1 0.00804082 0.0507622 0.00150978 -0.0477466 -0.0221837 0.0704242 0.00125 358
1 0.117773 0.0687624 0.00123011 -0.00654158 0.0223019 -0.00847286 0.00125 359
1 0.165197 0.0225339 0.0012424 0.0357476 -0.014394 0.279698 0.00125 360
1 0.12558 0.0564455 0.00203135 0.0301519 -0.0137895 -0.172608 0.00125 361
1 0.0341272 0.022032 0.001586 -0.0203203 -0.0204082 0.187973 0.00125 362
1 0.0932581 0.0883315 0.00194282 -0.0579763 0.00328457 -0.0642248 0.00125 363
1 0.121938 0.271676 0.00199597 0.0283221 0.00579932 -0.0799903 0.00125 364
1 0.0956567 0.056179 0.00180567 0.00464106 0.0531484 -0.0603185 0.00125 365
1 0.0141607 0.127523 0.0013937 0.000173641 -0.00167562 -0.249673 0.00125 366
1 0.0915167 0.0906948 0.00152224 -0.0808877 -0.00126719 -0.194383 0.00125 367
1 0.158949 0.0455761 0.00187811 0.000133479 0.033346 -0.140445 0.00125 368
1 0.135062 0.172404 0.00159085 -0.0444301 -0.00164125 0.0917947 0.00125 369
1 0.18495 0.154624 0.00155467 0.0333842 0.017376 -0.25306 0.00125 370
1 0.0255826 0.252902 0.00173005 0.0253123 -0.000320495 -0.0893645 0.00125 371
1 0.159965 0.131042 0.00199809 -0.0343398 0.0217556 -0.135808 0.00125 372
1 0.063514 0.23307 0.0013021 -0.0164371 -0.0250425 0.0834873 0.00125 373
1 0.0176929 0.202818 0.00187792 0.0207669 0.0178973 -0.0479116 0.00125 374
1 0.137317 0.106161 0.00139993 0.0665128 -0.00653151 -0.203578 0.00125 375
1 0.217301 0.111929 0.00134274 0.0533445 -0.0229339 0.035318 0.00125 376
1 0.108473 0.0141194 0.00132943 0.0363429 0.0243277 -0.223302 0.00125 377
1 0.0515071 0.0984755 0.00149271 0.0962368 -0.0271022 -0.265386 0.00125 378
1 0.203985 0.284723 0.0013197 0.00142065 0.0120208 -0.241902 0.00125 379
1 0.263261 0.0513513 0.002472 0.0155747 0.0150254 -0.0653496 0.00125 380
1 0.253547 0.205006 0.00135688 -0.02249 0.0179934 0.0640006 0.00125 381
1 0.132772 0.033763 0.00150695 -0.0299 0.00519296 -0.188641 0.00125 382
1 0.104758 0.0409503 0.00131458 0.013236 0.00441996 -0.0320951 0.00125 383
1 0.274743 0.264637 0.00231914 0.054722 0.0623137 -0.106513 0.00125 384
1 0.0621624 0.244578 0.00219481 0.0253739 -0.0739986 -0.0857255 0.00125 385
1 0.236785 0.0485822 0.00185436 0.0490749 0.0683629 -0.204565 0.00125 386
1 0.134335 0.136644 0.00149144 0.0037249 0.00620676 0.195938 0.00125 387
1 0.100854 0.0260014 0.00133335 0.0208528 0.0127267 0.153784 0.00125 388
1 0.267049 0.199867 0.00141891 0.0018369 0.0123558 -0.176713 0.00125 389
1 0.0866337 0.202687 0.00138655 0.0193503 -0.00369339 0.14014 0.00125 390
1 0.168644 0.264731 0.00132486 -0.00699625 -0.0392806 0.221279 0.00125 391
1 0.0448297 0.199643 0.00232068 0.0139358 0.00469214 -0.00470113 0.00125 392
1 0.106887 0.155251 0.00123612 -0.00487816 -0.0044356 0.00083163 0.00125 393
1 0.233145 0.0594022 0.00128314 0.000934035 -0.041803 0.0885906 0.00125 394
1 0.167189 0.287668 0.00244613 0.0186606 -0.0176537 0.0415002 0.00125 395
1 0.157835 0.170331 0.0013117 -0.00208946 0.0302461 -0.238343 0.00125 396
1 0.265208 0.0802977 0.0018213 -0.0350035 -0.0226605 -0.204636 0.00125 397
1 0.0108844 0.256768 0.00123359 0.0182563 0.0173016 0.130855 0.00125 398
1 0.255291 0.113884 0.00147696 0.0546528 0.0471545 -0.214013 0.00125 399