ITEM: TIMESTEP
1000000
ITEM: NUMBER OF ATOMS
10000
ITEM: BOX BOUNDS pp pp ff
0.0000000000000000e+00 9.2365278500000003e-01
0.0000000000000000e+00 9.2365278500000003e-01
-1.2500000000000001e-02 1.2500000000000001e-02
ITEM: ATOMS type x y z vx vy vz radius id
1 0.770054 0.742835 0.00195154 0.0032171 -0.00689619 -0.0416315 0.00125 1
1 0.587849 0.501922 0.00245097 0.00214491 0.000116482 -0.0151489 0.00125 2
1 0.305009 0.61059 0.00129335 0.0185567 -0.00174661 0.0608207 0.00125 3
1 0.226402 0.766723 0.00242932 -0.000103873 0.00574246 -0.0382293 0.00125 4
1 0.832867 0.704027 0.00126559 0.00037991 -0.000256317 0.192642 0.00125 5
1 0.138173 0.287953 0.00130781 0.00571547 0.00502015 0.234188 0.00125 6
1 0.545755 0.496369 0.001573 -0.0125417 0.0294354 -0.184556 0.00125 7
1 0.221575 0.805499 0.00173366 -0.00172982 -0.000282627 -0.263621 0.00125 8
1 0.721659 0.881307 0.00138527 -0.00307319 0.000788125 -0.179337 0.00125 9
1 0.263273 0.84132 0.00157679 -0.00110054 0.00015451 -0.235496 0.00125 10
1 0.890499 0.40364 0.00173538 -0.00979029 -0.0100412 0.104137 0.00125 11
1 0.447915 0.794031 0.00157268 0.00548781 -0.000588848 -0.191015 0.00125 12
1 0.336919 0.345706 0.00163317 0.000181269 0.00587382 -0.0808802 0.00125 13
1 0.731859 0.0991727 0.00244053 -0.000351716 0.00999556 -0.072944 0.00125 14
1 0.494213 0.848251 0.00158301 -0.00517789 0.0052181 -0.0890169 0.00125 15
1 0.453974 0.00962961 0.00126579 -0.00514688 -0.00173827 -0.231162 0.00125 16
1 0.00605593 0.189938 0.00159653 0.00104383 0.000682743 0.106166 0.00125 17
1 0.560225 0.108727 0.0014259 -0.0039924 -0.00484022 0.211213 0.00125 18
1 0.0122605 0.450278 0.00143003 0.0054 0.00130785 0.142053 0.00125 19
1 0.579253 0.905503 0.00138909 0.00167941 0.00516854 -0.236876 0.00125 20
1 0.219038 0.168406 0.00130221 0.00122735 -0.00514686 -0.185741 0.00125 21
1 0.566413 0.20412 0.00132432 0.00298566 -0.00581949 0.173106 0.00125 22
1 0.0181152 0.730381 0.0014511 0.00472368 -0.00618408 0.132121 0.00125 23
1 0.603653 0.0160063 0.00200244 -0.00235323 -0.00663222 -0.191419 0.00125 24
1 0.111664 0.895588 0.00172305 0.00127436 -0.00570217 -0.26186 0.00125 25
1 0.474943 0.643247 0.00142342 -0.0199277 0.00924014 0.144262 0.00125 26
1 0.33181 0.0394701 0.00149973 0.0145806 -0.0144698 0.119214 0.00125 27
1 0.295074 0.755224 0.0015563 0.00204946 0.00682974 0.0855609 0.00125 28
1 0.864361 0.763687 0.00173853 0.00916346 -0.00153537 -0.0821431 0.00125 29
1 0.568584 0.629356 0.001352 -0.00344569 -0.0032276 0.262709 0.00125 30
1 0.561449 0.521351 0.00130746 0.030014 0.0115042 0.183078 0.00125 31
1 0.350343 0.828451 0.00127679 -0.00178988 0.000313146 -0.00663205 0.00125 32
1 0.385785 0.423578 0.00133058 0.0031322 0.00707542 -0.235636 0.00125 33
1 0.141346 0.814653 0.00125989 0.000998315 -0.00245905 0.246434 0.00125 34
1 0.872483 0.499695 0.00178238 -0.00236357 0.00979523 -0.0451599 0.00125 35
1 0.339294 0.309202 0.00126678 0.000243646 0.000123006 -0.230364 0.00125 36
1 0.615771 0.823255 0.00143877 -0.000617484 -0.00434931 -0.232115 0.00125 37
1 0.034412 0.664707 0.0012778 0.000690896 -0.000290765 -0.234807 0.00125 38
1 0.655151 0.327856 0.00138734 -0.00667355 0.000476105 0.218816 0.00125 39
1 0.76491 0.384144 0.0012952 0.00179277 0.0039114 0.268736 0.00125 40
1 0.876723 0.266448 0.00245139 0.00140611 -0.00112756 0.0341888 0.00125 41
1 0.0616122 0.915191 0.00156998 -0.00465456 0.0128076 -0.235042 0.00125 42
1 0.831103 0.0560972 0.002426 -0.0150415 0.00675162 -0.0795568 0.00125 43
1 0.255967 0.422841 0.00142001 -0.0141653 0.0109634 0.13862 0.00125 44
1 0.357135 0.33359 0.00135381 -0.00108616 -0.00895838 0.16865 0.00125 45
1 0.347394 0.142748 0.00138717 -0.00302603 0.00428211 0.218325 0.00125 46
1 0.0251721 0.715849 0.00135118 0.00171022 -0.00115159 0.187721 0.00125 47
1 0.463787 0.102933 0.00193615 -0.00172967 0.00120737 -0.19573 0.00125 48
1 0.867771 0.0890313 0.00131017 -0.00166773 0.00118806 -0.229541 0.00125 49
1 0.864839 0.53645 0.00160749 -0.00187853 -0.00486307 0.0926687 0.00125 50
1 0.617338 0.751996 0.00127091 0.00218369 0.00175057 -0.231619 0.00125 51
1 0.398443 0.729994 0.00132302 0.00206164 -0.000813197 -0.314642 0.00125 52
1 0.703616 0.184659 0.0016492 0.000119701 -0.000560968 0.0937599 0.00125 53
1 0.100289 0.235259 0.0012747 0.0156077 -0.0073769 -0.24994 0.00125 54
1 0.200715 0.241065 0.00123007 0.0101861 -0.0043219 -0.00462402 0.00125 55
1 0.768944 0.490526 0.00146215 -0.00107312 0.000844382 -0.239265 0.00125 56
1 0.559031 0.388274 0.00140025 0.00140317 0.00147799 0.146374 0.00125 57
1 0.418212 0.524878 0.00157177 -0.00357618 0.00581124 -0.231325 0.00125 58
1 0.189042 0.264332 0.00156281 -0.00243674 -0.00319091 0.232735 0.00125 59
1 0.530942 0.285089 0.00161469 0.0170826 0.0195066 -0.227365 0.00125 60
1 0.831906 0.868893 0.00132187 -0.00920588 0.0123039 0.264224 0.00125 61
1 0.864878 0.866491 0.00136356 0.0103668 -0.00372461 0.182433 0.00125 62
1 0.588878 0.0464469 0.00172878 0.00262374 -0.00284019 -0.224606 0.00125 63
1 0.718058 0.0379459 0.00176343 -0.00224299 -0.00285141 0.13554 0.00125 64
1 0.225167 0.180596 0.00123043 0.00086324 0.00878093 0.0383054 0.00125 65
1 0.168007 0.193659 0.00126282 -0.00633807 0.00225356 -0.230527 0.00125 66
1 0.426968 0.103643 0.00144019 -0.00233426 0.00466329 0.139366 0.00125 67
1 0.0348864 0.741098 0.0015538 0.00964993 0.00177221 0.0541317 0.00125 68
1 0.851734 0.0317829 0.00158929 -0.000553295 -0.00551468 0.22319 0.00125 69
1 0.209271 0.0959808 0.00135736 -0.00263825 -0.00701449 -0.250269 0.00125 70
1 0.0225766 0.544911 0.00145836 -0.000401987 -0.00412704 0.129009 0.00125 71
1 0.879842 0.201922 0.00145012 0.00114382 3.34001e-05 -0.232742 0.00125 72
1 0.400588 0.297917 0.00231096 -0.00389994 -0.00174264 -0.128713 0.00125 73
1 0.381115 0.296165 0.00164396 0.00109693 -0.000939451 0.0543576 0.00125 74
1 0.476287 0.674197 0.0012933 -0.00345771 -0.000296295 -0.233241 0.00125 75
1 0.869212 0.871852 0.00136127 0.0232002 0.0201635 -0.207103 0.00125 76
1 0.786262 0.495893 0.00145243 0.0039679 0.00833122 0.223397 0.00125 77
1 0.302578 0.426282 0.00213835 -0.000942817 -0.00398582 -0.175108 0.00125 78
1 0.683805 0.340544 0.00146465 0.00670595 0.00529771 -0.195756 0.00125 79
1 0.521148 0.180281 0.00132957 0.000450469 0.00402261 -0.236502 0.00125 80
1 0.54063 0.671393 0.00198204 -0.00715329 -0.00200036 -0.00808375 0.00125 81
1 0.740293 0.661351 0.00135449 0.00771232 0.00337728 -0.252841 0.00125 82
1 0.48627 0.330619 0.00138368 0.00395485 -0.0031563 0.183399 0.00125 83
1 0.0146199 0.273179 0.00124969 -0.00775479 0.00772402 0.196883 0.00125 84
1 0.461883 0.101253 0.00225358 -0.000863201 -0.00300882 -0.050269 0.00125 85
1 0.173776 0.712581 0.0020142 0.00419725 0.00270036 -0.184054 0.00125 86
1 0.825168 0.366696 0.00124736 0.00203776 0.00151211 0.201447 0.00125 87
1 0.560545 0.603589 0.00235139 3.7016e-05 -0.00532015 0.0211254 0.00125 88
1 0.541876 0.548072 0.00168313 0.0318393 0.00942196 -0.0666043 0.00125 89
1 0.862845 0.0988864 0.00234595 0.0163178 0.00400904 -0.113959 0.00125 90
1 0.521615 0.267997 0.0012398 -0.00905159 0.00159059 0.18213 0.00125 91
1 0.394344 0.00808424 0.00154353 -0.00635716 -0.00126778 0.120897 0.00125 92
1 0.645238 0.0656359 0.00142672 0.0039757 -0.00449854 0.169713 0.00125 93
1 0.247241 0.599858 0.00125856 0.0199143 -0.0141981 0.193757 0.00125 94
1 0.285877 0.920338 0.00123486 -0.00249848 -0.000105449 -0.163678 0.00125 95
1 0.404799 0.499535 0.00155211 0.00341902 -0.00597804 -0.182356 0.00125 96
1 0.862846 0.457571 0.0017148 0.000683958 0.00292453 0.0674802 0.00125 97
1 0.384105 0.801031 0.00138682 -0.00344409 0.00742497 0.223537 0.00125 98
1 0.673057 0.640128 0.00137931 -0.000637515 -0.00592246 -0.246514 0.00125 99
1 0.703113 0.145711 0.00123995 0.000112526 0.00410196 -0.229606 0.00125 100
1 0.616118 0.630439 0.0014586 -0.0165294 0.0147234 -0.23842 0.00125 101
1 0.660905 0.613213 0.00165935 -0.000708757 -0.00548392 -0.0927328 0.00125 102
1 0.818649 0.398702 0.0016755 -0.00126534 0.00352568 -0.228632 0.00125 103
1 0.439768 0.605443 0.00214873 -0.00140285 -0.000428181 0.00918464 0.00125 104
1 0.258894 0.543486 0.00148819 -0.00105666 -0.00118935 0.117899 0.00125 105
1 0.0306721 0.336853 0.00135512 -0.00228188 -0.00226703 0.0356585 0.00125 106
1 0.783501 0.770725 0.00158898 0.00327702 0.000847248 -0.181613 0.00125 107
1 0.222988 0.717927 0.00181729 0.00798924 -0.00507094 -0.0774945 0.00125 108
1 0.0814976 0.229043 0.00141788 -0.00422173 0.000619166 -0.22613 0.00125 109
1 0.858918 0.188049 0.00139271 -0.00383827 0.00346344 -0.230149 0.00125 110
1 0.92159 0.312204 0.00127132 -0.000226515 -0.00155694 0.164458 0.00125 111
1 0.716906 0.273656 0.00146515 0.000742762 -0.0020992 -0.0958174 0.00125 112
1 0.634989 0.839862 0.00126489 -0.00143825 0.00429947 -0.236143 0.00125 113
1 0.459917 0.711936 0.00163588 -0.000858767 0.00531489 -0.0887107 0.00125 114
1 0.172749 0.0376175 0.00250339 -0.00240563 -0.00191765 -0.01299 0.00125 115
1 0.245827 0.308766 0.00123822 -0.00139085 -0.00404801 0.173034 0.00125 116
1 0.000781999 0.346975 0.0019688 -0.00104044 0.000500026 -0.0649212 0.00125 117
1 0.81857 0.192355 0.0013507 0.00145326 0.00752039 -0.237777 0.00125 118
1 0.399764 0.711289 0.00151613 -0.00115985 0.00205258 0.110256 0.00125 119
1 0.282748 0.528175 0.0015762 -0.00103955 -0.00840567 -0.235443 0.00125 120
1 0.878219 0.775037 0.00136675 -0.00224454 -0.00954039 0.254011 0.00125 121
1 0.337898 0.352976 0.00128813 0.00112287 -0.00123127 -0.233507 0.00125 122
1 0.594527 0.165707 0.00126928 0.00258734 0.00564189 -0.254455 0.00125 123
1 0.570026 0.766421 0.00134099 -0.00151734 -0.00676136 0.173672 0.00125 124
1 0.200949 0.572339 0.00195141 0.0018011 0.000627566 -0.234502 0.00125 125
1 0.86864 0.0318133 0.00157307 -0.00753915 -0.000579174 -0.0941972 0.00125 126
1 0.327514 0.0487283 0.00193429 -0.0035665 0.00988521 -0.189524 0.00125 127
1 0.148095 0.219741 0.00147907 -0.000730566 -0.00963074 -0.244876 0.00125 128
1 0.0973962 0.869635 0.001315 -0.00169428 -0.00935744 0.180414 0.00125 129
1 0.532359 0.0454157 0.00141277 0.00986957 0.0044552 0.128904 0.00125 130
1 0.570011 0.236329 0.00147191 0.00213254 0.00296487 -0.196267 0.00125 131
1 0.41297 0.836307 0.00202951 -0.00357955 -0.0133911 -0.0761948 0.00125 132
1 0.694741 0.543255 0.00174402 -0.00260846 -0.00456385 0.161016 0.00125 133
1 0.618147 0.402938 0.00138868 -0.014976 -0.00643591 -0.238854 0.00125 134
1 0.365045 0.112985 0.00133081 0.00203652 -0.00284511 -0.0806678 0.00125 135
1 0.848277 0.87668 0.00163827 -0.00330132 -0.00164938 -0.0348003 0.00125 136
1 0.70278 0.158783 0.00140922 0.000410228 0.00350861 -0.246101 0.00125 137
1 0.381372 0.803122 0.00246175 -0.000833505 -0.00450599 -0.0319161 0.00125 138
1 0.360793 0.378347 0.00166504 0.00622073 0.0115937 0.0552589 0.00125 139
1 0.555068 0.341773 0.00179377 0.0137419 0.00451864 -0.217112 0.00125 140
1 0.907907 0.777296 0.00134879 -0.00218387 -0.0125303 0.0104109 0.00125 141
1 0.583715 0.526668 0.00142507 0.00340753 0.00222645 0.141178 0.00125 142
1 0.666168 0.837993 0.00189695 -0.0018923 0.000290385 -0.0722299 0.00125 143
1 0.738841 0.583162 0.00126474 0.00931915 0.00537753 0.192336 0.00125 144
1 0.0873629 0.570331 0.00166633 -0.00361118 -0.00336407 0.0944736 0.00125 145
1 0.0312624 0.184545 0.00126211 -0.00149066 -0.00771152 -0.0922677 0.00125 146
1 0.695025 0.795614 0.00130885 0.00770689 0.00191577 0.181353 0.00125 147
1 0.524418 0.177128 0.00143013 -0.000212011 0.000474059 0.169111 0.00125 148
1 0.279066 0.332902 0.00194779 0.00776886 -3.50394e-05 -0.0688018 0.00125 149
1 0.0659964 0.728248 0.00153379 0.00325802 -0.00312615 -0.179044 0.00125 150
1 0.00176747 0.814055 0.00149304 0.000837236 0.00156379 0.114469 0.00125 151
1 0.0949986 0.390544 0.00235643 0.000665664 -0.0202166 -0.111299 0.00125 152
1 0.133977 0.410276 0.00147947 -0.0059739 0.0184804 -0.195228 0.00125 153
1 0.599082 0.486867 0.00147915 0.00115782 -0.00245324 0.121876 0.00125 154
1 0.329805 0.37119 0.00159096 0.00542845 -0.00661391 -0.179561 0.00125 155
1 0.866776 0.471945 0.00145037 -0.00701625 0.00197139 -0.249126 0.00125 156
1 0.466654 0.855137 0.00210211 0.00179117 0.00126266 -0.0559946 0.00125 157
1 0.361647 0.576915 0.00129855 -0.00111701 0.0102089 0.185457 0.00125 158
1 0.863506 0.608232 0.00162787 -0.00249206 0.00345523 0.0926087 0.00125 159
1 0.688917 0.912351 0.00134639 0.00613548 -0.0213996 -0.235047 0.00125 160
1 0.321758 0.553263 0.00154046 0.00684054 0.00523655 -0.29104 0.00125 161
1 0.895169 0.0547896 0.00161321 0.00336887 -0.00502235 -0.233073 0.00125 162
1 0.79161 0.856319 0.00130129 -0.00785531 0.00457375 0.201817 0.00125 163
1 0.832597 0.250867 0.00174243 -0.0146947 0.00963413 0.110902 0.00125 164
1 0.336184 0.455162 0.00158103 0.00185604 0.000883462 -0.183215 0.00125 165
1 0.83636 0.776753 0.00179095 0.00111883 0.00236117 -0.200767 0.00125 166
1 0.853612 0.885584 0.00124286 -0.000408434 -0.00178219 0.192962 0.00125 167
1 0.489533 0.0742217 0.00246568 0.00110325 -0.00279793 -0.024072 0.00125 168
1 0.085691 0.417256 0.00124316 -0.00308996 0.00386886 0.189295 0.00125 169
1 0.0147846 0.30615 0.00202286 0.000315056 0.0010185 -0.0326987 0.00125 170
1 0.317544 0.368078 0.00174529 0.00603741 -0.00275215 -0.0540134 0.00125 171
1 0.818206 0.0723384 0.00124895 -0.00468365 -0.00104812 -0.277367 0.00125 172
1 0.691043 0.390275 0.00128321 -0.000167948 -0.00253283 0.181422 0.00125 173
1 0.738737 0.197211 0.00172721 0.00118157 0.00697075 0.0978823 0.00125 174
1 0.852307 0.821845 0.00125708 0.00579425 -0.000788291 0.212564 0.00125 175
1 0.604528 0.923437 0.00171049 0.00750716 0.0135453 -0.19462 0.00125 176
1 0.436437 0.204018 0.00124821 0.00327442 0.00562885 0.198566 0.00125 177
1 0.795704 0.819035 0.00130996 -0.00236223 0.00470248 -0.234071 0.00125 178
1 0.399269 0.0720347 0.00140501 -0.00030393 0.000947212 0.14474 0.00125 179
1 0.862774 0.105315 0.00146417 -0.00112639 0.00300346 0.127994 0.00125 180
1 0.0348091 0.405818 0.00175213 0.00598316 -0.00945422 0.15678 0.00125 181
1 0.420486 0.794037 0.00150594 -0.000572876 -0.0087051 -0.238405 0.00125 182
1 0.158038 0.353306 0.00136463 -0.000922212 -0.0115306 0.162916 0.00125 183
1 0.829706 0.24228 0.00138832 -0.00265738 -0.00451683 0.181323 0.00125 184
1 0.514094 0.183017 0.00202161 -0.000159958 -0.000193908 -0.0340765 0.00125 185
1 0.511566 0.115209 0.00123578 -0.00158043 0.0031195 0.24056 0.00125 186
1 0.718648 0.800199 0.00140366 -0.000966181 0.000866598 0.147836 0.00125 187
1 0.489555 0.556185 0.00145714 -0.00393599 -0.0138776 -0.255385 0.00125 188
1 0.909538 0.130468 0.00148381 -0.00524459 -0.00245743 -0.260932 0.00125 189
1 0.0752238 0.0991328 0.00143963 -0.00136104 0.00856703 0.226533 0.00125 190
1 0.0521121 0.568813 0.00136116 -0.00714976 0.00298706 0.185188 0.00125 191
1 0.659976 0.24085 0.0013145 -0.00606951 -0.00228349 -0.238933 0.00125 192
1 0.307766 0.151624 0.00133071 -0.00530994 0.0121082 0.171616 0.00125 193
1 0.383317 0.44726 0.00151398 -0.00289922 -0.00315932 0.0631665 0.00125 194
1 0.16853 0.449291 0.00212067 -0.00569785 0.0127975 -0.072903 0.00125 195
1 0.67591 0.778131 0.0024056 -0.00136464 0.0063241 -0.0404261 0.00125 196
1 0.49643 0.401745 0.00158564 -0.0195659 -0.00808036 0.0940204 0.00125 197
1 0.74936 0.148906 0.00143871 0.000486241 0.00102971 -0.239431 0.00125 198
1 0.0281008 0.522188 0.00127113 -0.0068436 -0.0417116 -0.231598 0.00125 199
1 0.521829 0.716727 0.00149071 -0.00118696 0.0104171 0.0730362 0.00125 200
1 0.581012 0.616362 0.0014225 -0.0219415 -0.00147943 -0.231684 0.00125 201
1 0.0401146 0.446644 0.0012897 -0.00583729 -0.000729876 -0.233516 0.00125 202
1 0.335867 0.179197 0.00219966 -0.000539487 0.00284003 0.0122099 0.00125 203
1 0.592291 0.0705077 0.00213936 -0.00479646 -0.0155546 -0.0389261 0.00125 204
1 0.646444 0.740797 0.00174108 -0.00172944 0.00727111 0.0729009 0.00125 205
1 0.145392 0.304112 0.00130059 0.000861787 -0.00121546 -0.20677 0.00125 206
1 0.611707 0.762606 0.00167307 -0.000816677 -0.000763918 0.0834525 0.00125 207
1 0.730229 0.85898 0.00151071 -0.000796033 0.00219087 -0.230689 0.00125 208
1 0.0409431 0.714833 0.00123455 -0.00254571 0.00282103 -0.152132 0.00125 209
1 0.69449 0.452843 0.00158073 0.000369243 -0.00107025 -0.228727 0.00125 210
1 0.674672 0.298159 0.00146181 -0.00230789 -0.00370321 -0.230986 0.00125 211
1 0.0475566 0.0981853 0.00205094 0.0106944 -0.00899984 -0.182097 0.00125 212
1 0.279543 0.891952 0.00144494 0.00135806 -0.00258103 -0.197244 0.00125 213
1 0.607603 0.397886 0.00220097 -0.0100516 -0.00670697 -0.186607 0.00125 214
1 0.805012 0.0665948 0.00141194 0.00234611 -0.00275828 -0.226057 0.00125 215
1 0.530967 0.163891 0.00129948 -0.0136953 0.000159021 -0.233722 0.00125 216
1 0.698826 0.064869 0.00130851 -0.00573532 -0.00815157 -0.236748 0.00125 217
1 0.241918 0.309337 0.00124895 -0.00486051 0.00541923 0.267659 0.00125 218
1 0.709321 0.202066 0.00133022 -9.06356e-05 0.000485933 0.143306 0.00125 219
1 0.414912 0.0491252 0.00232647 0.000474458 0.00467118 -0.0616021 0.00125 220
1 0.364582 0.0900684 0.00126692 -0.0059481 -0.000251316 -0.238919 0.00125 221
1 0.431984 0.920532 0.00136166 -0.0244496 -0.0182046 0.1686 0.00125 222
1 0.591988 0.844685 0.00129148 -0.00816868 0.0063299 -0.233861 0.00125 223
1 0.898168 0.550427 0.00140839 0.006186 0.00311384 0.174439 0.00125 224
1 0.23833 0.512639 0.00211161 -0.00473803 -0.00643409 -0.171468 0.00125 225
1 0.558671 0.152304 0.00131643 0.00088153 -0.00707974 -0.234973 0.00125 226
1 0.663638 0.665768 0.00194677 0.000884811 -0.00120659 -0.0243072 0.00125 227
1 0.030559 0.778579 0.00136146 0.00560026 -0.00205223 -0.226363 0.00125 228
1 0.0932521 0.713293 0.00124185 -0.00749747 0.00654953 -0.185545 0.00125 229
1 0.731584 0.324997 0.00127971 -0.000456173 -0.000986509 0.209045 0.00125 230
1 0.353715 0.770025 0.00131675 -0.00804585 0.0058079 -0.230447 0.00125 231
1 0.172401 0.528944 0.00203665 -0.00565054 -0.0115471 -0.0608388 0.00125 232
1 0.0907525 0.679348 0.00137149 0.00227155 0.00879775 -0.111718 0.00125 233
1 0.413801 0.204216 0.00183542 -0.00106211 7.7935e-05 -0.216227 0.00125 234
1 0.858514 0.623052 0.00167515 0.00402555 0.000345647 -0.233403 0.00125 235
1 0.504816 0.770259 0.00165023 -0.0147487 0.0227794 -0.226796 0.00125 236
1 0.573093 0.0567661 0.00122902 0.00267009 -0.00200387 -0.0307344 0.00125 237
1 0.592915 0.153345 0.00248536 0.00342964 0.000294538 -0.0346648 0.00125 238
1 0.054871 0.348854 0.00136997 -0.00720129 0.00146233 -0.20221 0.00125 239
1 0.644716 0.336057 0.00123637 0.00425658 -0.00183349 0.232014 0.00125 240
1 0.868835 0.768365 0.00124489 -0.00321003 0.00232712 -0.242486 0.00125 241
1 0.188444 0.45878 0.00177797 -0.0185509 -0.0103626 -0.230837 0.00125 242
1 0.453049 0.732765 0.00180688 0.00298088 0.0032883 0.12008 0.00125 243
1 0.0229263 0.632031 0.00148827 -0.00172291 -0.000707636 -0.192969 0.00125 244
1 0.816473 0.540042 0.00154286 -0.000235824 0.000571969 -0.100002 0.00125 245
1 0.886521 0.0393717 0.00175573 -0.00290056 -5.64718e-05 0.120417 0.00125 246
1 0.520599 0.36088 0.00144916 -0.00399442 0.00503977 0.165267 0.00125 247
1 0.486774 0.341491 0.00150389 0.0122056 0.00743665 -0.178284 0.00125 248
1 0.380775 0.781001 0.00179473 -0.00933062 -0.015055 0.155788 0.00125 249
1 0.323347 0.0364343 0.00123496 -0.00189442 -0.00154169 -0.156157 0.00125 250
1 0.180449 0.553544 0.00137251 -0.0020905 -0.00498821 -0.246895 0.00125 251
1 0.49399 0.390035 0.00136866 0.00289367 -0.00534635 0.183674 0.00125 252
1 0.0498578 0.00969593 0.00131212 5.87895e-05 0.00711396 0.203886 0.00125 253
1 0.236638 0.602889 0.00147069 0.0168956 0.0137205 0.0504932 0.00125 254
1 0.156909 0.357945 0.00134569 -0.00793279 0.0128181 0.190919 0.00125 255
1 0.302219 0.0271777 0.00159694 0.00775209 0.00133814 -0.228866 0.00125 256
1 0.532109 0.807019 0.00158895 0.00953549 4.80758e-05 -0.2294 0.00125 257
1 0.172115 0.122744 0.00133502 -0.00671804 0.00137809 -0.233794 0.00125 258
1 0.158426 0.824885 0.00145582 -0.0126277 -0.00086899 0.224872 0.00125 259
1 0.612431 0.664892 0.0012469 0.000933922 0.00136546 -0.235971 0.00125 260
1 0.894289 0.444948 0.00139004 0.0232534 0.0150518 -0.235793 0.00125 261
1 0.25519 0.720512 0.00201684 0.00295227 -0.00140184 -0.0647002 0.00125 262
1 0.272476 0.218182 0.00156734 -0.00772993 -0.00474321 0.0523345 0.00125 263
1 0.644839 0.370521 0.00169094 -0.00793398 0.0169415 -0.242482 0.00125 264
1 0.126004 0.843291 0.00138374 0.000594432 -0.0132174 -0.229044 0.00125 265
1 0.744908 0.308879 0.00145091 0.00265375 -0.0178998 -0.231121 0.00125 266
1 0.29183 0.454791 0.00195681 0.0360511 -0.0166867 -0.0621503 0.00125 267
1 0.708895 0.743333 0.00141233 0.00617202 0.00292966 -0.230289 0.00125 268
1 0.330478 0.832565 0.00133833 -0.0039567 0.00601407 0.17004 0.00125 269
1 0.764671 0.191022 0.00127172 0.014246 0.00847744 -0.25427 0.00125 270
1 0.226235 0.46303 0.00153436 0.00369554 0.00148007 0.122768 0.00125 271
1 0.324706 0.0296559 0.00138652 -0.00903542 0.0174657 -0.23688 0.00125 272
1 0.79068 0.464295 0.0024043 -0.0116904 0.0052527 -4.34594e-05 0.00125 273
1 0.244474 0.745388 0.00123039 0.00229521 -8.55278e-05 0.0311342 0.00125 274
1 0.54901 0.871165 0.00133993 -0.00493553 -0.00512706 -0.236351 0.00125 275
1 0.431612 0.0646072 0.00197154 -0.00788567 0.0147648 -0.0797314 0.00125 276
1 0.369663 0.762844 0.00126482 -0.0017396 0.00234918 0.18947 0.00125 277
1 0.837638 0.349216 0.00133337 -0.00140857 0.0393871 -0.220419 0.00125 278
1 0.80105 0.123476 0.0012294 -0.00166485 -0.0022652 -0.0624152 0.00125 279
1 0.282222 0.60473 0.00126611 -0.00353343 0.00575253 0.240776 0.00125 280
1 0.36402 0.514663 0.00145895 -0.00426538 -0.00378032 -0.264795 0.00125 281
1 0.352068 0.842141 0.00160764 -0.000458936 -0.00621652 0.0936547 0.00125 282
1 0.876679 0.663768 0.00133026 -0.00150624 0.00144757 -0.0126911 0.00125 283
1 0.247368 0.375043 0.00186872 0.00581935 1.91074e-05 -0.151106 0.00125 284
1 0.168533 0.262633 0.00151895 -0.0011716 -0.00342484 -0.178537 0.00125 285
1 0.889191 0.241502 0.00202405 0.00400263 -0.00627133 -0.00189553 0.00125 286
1 0.90238 0.353807 0.00128904 -0.00283803 -0.000989293 -0.232325 0.00125 287
1 0.127771 0.495768 0.00150675 -0.00553198 0.000441127 0.215767 0.00125 288
1 0.649727 0.340551 0.00171824 0.00327776 0.00273883 0.0931461 0.00125 289
1 0.0896776 0.065855 0.00125977 0.00845915 0.0131897 0.00038081 0.00125 290
1 0.58981 0.534954 0.00247739 0.00369506 -0.00489236 -0.0231059 0.00125 291
1 0.5453 0.912014 0.00165409 -2.41814e-05 -0.0151361 0.0933304 0.00125 292
1 0.657157 0.219544 0.00144825 -0.000653722 -0.00216128 0.135996 0.00125 293
1 0.243914 0.661308 0.00238591 -0.00228591 0.00967081 -0.00696979 0.00125 294
1 0.692401 0.483261 0.00215794 -0.0292395 -0.0103917 -0.162089 0.00125 295
1 0.910189 0.0137672 0.0016351 -0.00197753 -0.00165447 0.0901072 0.00125 296
1 0.632557 0.679701 0.00151023 -0.00228712 -0.0137804 0.0966017 0.00125 297
1 0.739263 0.506858 0.00135896 -0.000969586 0.0115285 -0.202061 0.00125 298
1 0.873992 0.889745 0.00159091 0.00172301 -0.00177896 -0.23464 0.00125 299
1 0.582166 0.0662055 0.0012603 -0.00166482 -0.0057944 -0.229322 0.00125 300
1 0.340512 0.14561 0.00174105 0.0110003 -0.00815099 -0.0821308 0.00125 301
1 0.387688 0.518094 0.0012353 -0.0101291 -0.0102654 -0.165427 0.00125 302
1 0.632997 0.805959 0.00164749 0.000429469 0.0022389 0.103172 0.00125 303
1 0.321157 0.168249 0.0017701 0.0151065 -0.00204264 0.139413 0.00125 304
1 0.91749 0.393165 0.00137414 -0.00438718 0.00093834 -0.249034 0.00125 305
1 0.734982 0.390614 0.0013836 0.00443012 0.000772863 0.179761 0.00125 306
1 0.0438982 0.0326242 0.00124112 -0.000194629 -9.49969e-05 0.181102 0.00125 307
1 0.56732 0.86594 0.00189214 0.000596748 -0.000469282 -0.240899 0.00125 308
1 0.235947 0.591034 0.00144499 -0.000708128 0.00191159 0.231432 0.00125 309
1 0.394478 0.219507 0.00162875 0.00254951 0.0084729 0.0595586 0.00125 310
1 0.351024 0.288368 0.0020101 -0.00379674 -0.0017182 -0.197727 0.00125 311
1 0.303451 0.304538 0.0013042 0.0165877 -0.013778 -0.234025 0.00125 312
1 0.42105 0.783039 0.00220523 0.018586 -0.00777421 -0.0523497 0.00125 313
1 0.259632 0.503911 0.00155966 0.00736431 0.00292862 0.0982159 0.00125 314
1 0.265217 0.62321 0.00124215 0.00142919 -0.00219517 0.171756 0.00125 315
1 0.016012 0.706967 0.00123639 -0.00856339 0.00577107 -0.0578208 0.00125 316
1 0.496384 0.556081 0.00124998 -0.00421036 0.0016002 -0.021304 0.00125 317
1 0.54821 0.0709251 0.00206166 -0.00332514 0.0015901 -0.0614882 0.00125 318
1 0.250631 0.655228 0.00142547 0.00139122 -0.00097496 0.227741 0.00125 319
1 0.352251 0.616076 0.00134693 0.00201357 -0.00172117 0.169579 0.00125 320
1 0.52425 0.818178 0.00137089 0.010596 -0.00117472 -0.236663 0.00125 321
1 0.855487 0.62485 0.00196643 -0.0148763 -0.0237326 -0.0615727 0.00125 322
1 0.430086 0.237993 0.00156603 0.00571358 0.00946279 0.0544063 0.00125 323
1 0.26753 0.311577 0.00131023 -0.00157341 -0.0043256 -0.234357 0.00125 324
1 0.388341 0.663144 0.00202715 -0.00978734 -0.00180232 -0.181734 0.00125 325
1 0.160483 0.912436 0.00167629 0.0216726 -0.0218213 0.132512 0.00125 326
1 0.744611 0.339985 0.00140302 -0.00132849 -0.00748249 0.148263 0.00125 327
1 0.332567 0.555386 0.00156357 1.84023e-05 -0.00257863 -0.235494 0.00125 328
1 0.169539 0.518308 0.00145579 0.0111475 0.00456337 0.129299 0.00125 329
1 0.725255 0.454603 0.00148462 -0.00200862 0.00781544 0.0758902 0.00125 330
1 0.663295 0.558152 0.00126516 -0.00268068 -0.00682199 -0.230554 0.00125 331
1 0.427676 0.756412 0.00162715 0.0012781 0.00464182 -0.281449 0.00125 332
1 0.804897 0.667381 0.00128218 0.00673094 0.016855 0.164978 0.00125 333
1 0.380165 0.192077 0.00141385 -0.0032657 -0.0262526 0.11974 0.00125 334
1 0.745469 0.456413 0.00132769 0.00124942 0.00200772 -0.204058 0.00125 335
1 0.203215 0.335016 0.00207755 0.00172302 0.00268153 -0.180185 0.00125 336
1 0.282532 0.801313 0.00124692 0.00104856 0.00334534 0.197271 0.00125 337
1 0.585618 0.522925 0.00167812 -0.00337512 0.00230653 -0.275802 0.00125 338
1 0.692109 0.162984 0.00138419 -0.0181632 -0.00529665 0.155551 0.00125 339
1 0.26239 0.73291 0.00136473 0.00310343 -0.00290596 0.184206 0.00125 340
1 0.773881 0.519679 0.00129033 -0.00160067 0.000924128 0.047976 0.00125 341
1 0.71993 0.809377 0.00151382 -0.00609066 -0.0124362 -0.195499 0.00125 342
1 0.594025 0.455347 0.0013151 -0.00235694 0.00432495 -0.314696 0.00125 343
1 0.334028 0.212393 0.00169256 0.000603376 0.000598721 -0.0862221 0.00125 344
1 0.313325 0.829476 0.00163151 0.00590083 -0.00369323 0.0529419 0.00125 345
1 0.705403 0.831422 0.00226319 0.00426648 -0.00455098 -0.134503 0.00125 346
1 0.566391 0.132729 0.00155039 -0.00432798 0.00252105 0.137782 0.00125 347
1 0.181081 0.247057 0.00244317 0.000450089 0.00668229 -0.0382214 0.00125 348
1 0.185361 0.681038 0.00166745 -0.00634444 0.00392651 0.0834871 0.00125 349
1 0.474414 0.447229 0.00134928 0.00803637 0.00343471 0.227997 0.00125 350
1 0.276533 0.917604 0.00158139 -0.00394791 -0.0110058 0.22507 0.00125 351
1 0.627107 0.0947603 0.00136112 0.00492571 -0.0130624 0.165406 0.00125 352
1 0.62435 0.739408 0.00123766 0.00643829 -0.00233363 -0.268592 0.00125 353
1 0.362215 0.495381 0.00124387 0.000127257 0.00113463 0.0632219 0.00125 354
1 0.663804 0.331369 0.00164642 -0.0073303 0.0188865 -0.227527 0.00125 355
1 0.458432 0.0273364 0.00166535 -0.00834846 0.00129132 -0.229534 0.00125 356
1 0.889352 0.206335 0.00164188 0.00433381 -0.00251481 0.0539397 0.00125 357
1 0.796091 0.536007 0.00134238 0.000499514 -0.00603022 0.192417 0.00125 358
1 0.388796 0.88315 0.00153582 0.0047938 0.00876502 -0.194455 0.00125 359
1 0.812474 0.913623 0.00170651 -0.00241994 -0.00573934 -0.0850882 0.00125 360
1 0.57834 0.243262 0.00191632 0.00162495 -0.00276441 -0.21533 0.00125 361
1 0.169798 0.0054495 0.0017814 0.000441798 0.0044891 -0.0925461 0.00125 362
1 0.0952486 0.884717 0.00139831 0.00336879 0.00162278 -0.239868 0.00125 363
1 0.144047 0.212858 0.00136937 0.00212099 -0.00214094 -0.23763 0.00125 364
1 0.655129 0.233558 0.001613 -0.0056531 0.0103559 0.0900672 0.00125 365
1 0.451721 0.185922 0.00125224 0.00845328 0.00883616 -0.231261 0.00125 366
1 0.536314 0.458498 0.00180887 0.00174853 -0.00146735 -0.0778261 0.00125 367
1 0.813495 0.446644 0.00181343 0.000960226 0.00627615 -0.21524 0.00125 368
1 0.68937 0.39251 0.00171083 0.0077315 -0.00415125 -0.229924 0.00125 369
1 0.198526 0.175194 0.00157484 0.0116546 -0.0511945 -0.240587 0.00125 370
1 0.62668 0.407781 0.00132556 0.0107288 0.00796918 -0.235743 0.00125 371
1 0.573143 0.426457 0.00176382 -0.00160097 0.00403543 0.123963 0.00125 372
1 0.451382 0.270241 0.00140579 0.00696925 -0.00734858 0.176758 0.00125 373
1 0.200616 0.329875 0.00130566 -0.00485674 -0.00101931 0.040153 0.00125 374
1 0.0446191 0.883689 0.00143765 -0.00469443 0.00100157 0.140227 0.00125 375
1 0.251626 0.880823 0.00146563 0.00118456 -0.0162152 0.0850946 0.00125 376
1 0.37623 0.260378 0.00200204 -0.00243494 -0.0013012 -0.0646224 0.00125 377
1 0.787869 0.412153 0.00132069 0.00229976 0.00411734 0.232362 0.00125 378
1 0.862967 0.21919 0.0012719 0.00442093 -0.00384905 0.167878 0.00125 379
1 0.440496 0.109643 0.00128255 -0.00114406 -0.00186218 0.158939 0.00125 380
1 0.780461 0.630723 0.00158905 -0.00388686 0.00206401 -0.234671 0.00125 381
1 0.220025 0.680728 0.00128119 0.011227 -0.00237058 -0.232366 0.00125 382
1 0.205197 0.692496 0.00154691 -0.0021792 -0.00230878 0.104986 0.00125 383
1 0.085177 0.464878 0.00240129 0.0042797 -0.00361576 -0.0940036 0.00125 384
1 0.169489 0.507364 0.00155999 0.0139197 -0.00508118 -0.0995804 0.00125 385
1 0.0164728 0.799143 0.00198514 -0.0183304 0.00284741 -0.192721 0.00125 386
1 0.768924 0.0568608 0.00127187 0.00788123 -0.00278879 0.258897 0.00125 387
1 0.269779 0.667525 0.00151697 0.00526753 0.00164702 -0.238222 0.00125 388
1 0.337629 0.221858 0.0025191 0.00937719 -0.00470804 -0.0483934 0.00125 389
1 0.651769 0.741606 0.00125919 -0.00612794 -0.00149868 0.243122 0.00125 390
1 0.0580121 0.229978 0.00203864 -0.00199119 0.000792994 -0.186537 0.00125 391
1 0.65496 0.421418 0.00128095 -0.00552818 -0.00148616 0.18717 0.00125 392
1 0.528277 0.132618 0.00164136 -0.00146587 -0.00178482 -0.0852049 0.00125 393
1 0.352558 0.858878 0.00130613 0.000916509 0.000376579 0.235293 0.00125 394