ITEM: TIMESTEP
1000000
ITEM: NUMBER OF ATOMS
10000
ITEM: BOX BOUNDS pp pp ff
0.0000000000000000e+00 2.9439488624999999e-01
0.0000000000000000e+00 2.9439488624999999e-01
-1.2500000000000001e-02 1.2500000000000001e-02
ITEM: ATOMS type x y z vx vy vz radius id
1 0.148634 0.121575 0.00143742 -0.00926916 -0.0103003 -0.21951 0.00125 1
1 0.0124465 0.267811 0.00184588 -0.0115356 0.00590724 -0.161951 0.00125 2
1 0.133065 0.217815 0.00131326 -0.00531972 -0.0670077 -0.214926 0.00125 3
1 0.084103 0.0619648 0.0017818 -0.0254189 0.0192437 -0.238616 0.00125 4
1 0.0710954 0.178997 0.00139563 0.00343344 -0.0248227 -0.210423 0.00125 5
1 0.153659 0.179169 0.00242171 0.0134295 -0.00471165 -0.0981125 0.00125 6
1 0.157496 0.180954 0.00136632 0.0673222 -0.00892516 -0.244224 0.00125 7
1 0.126888 0.293652 0.00183897 0.00456218 0.0156241 -0.212723 0.00125 8
1 0.0782158 0.0519414 0.00138751 -0.0152311 0.0191114 -0.25257 0.00125 9
1 0.0295913 0.0285117 0.00195157 -0.00886482 0.0099633 -0.102692 0.00125 10
1 0.0834367 0.193871 0.00136927 -0.0227989 -0.0291706 -0.215415 0.00125 11
1 0.0662133 0.0203371 0.00133228 -0.00467533 -0.0113754 0.190387 0.00125 12
1 0.250799 0.133389 0.00127091 -0.0822537 -0.0107019 -0.0108934 0.00125 13
1 0.0830149 0.261163 0.00194462 -0.00431608 0.00716805 -0.0258912 0.00125 14
1 0.146332 0.0804049 0.00140877 -0.025729 0.0393867 0.0662247 0.00125 15
1 0.225968 0.0445543 0.00129218 -0.0158595 -0.0163951 -0.0639789 0.00125 16
1 0.192514 0.063425 0.00223014 0.037574 0.00613411 -0.0454873 0.00125 17
1 0.0890501 0.130902 0.00194627 -0.0508521 0.0190989 -0.0127525 0.00125 18
1 0.190506 0.16748 0.00237595 -0.0273846 -0.0235591 -0.11858 0.00125 19
1 0.0643808 0.19229 0.00215177 7.12794e-05 -0.00546541 -0.0219154 0.00125 20
1 0.142709 0.240647 0.0013468 -0.0279394 -0.0544072 0.181913 0.00125 21
1 0.0627646 0.162631 0.00203981 -0.00275324 -0.0235695 -0.146204 0.00125 22
1 0.0174738 0.0646641 0.0012341 -0.0359478 0.0153228 0.200871 0.00125 23
1 0.289878 0.102082 0.00136082 -0.000803684 -0.021671 0.14654 0.00125 24
1 0.116666 0.149179 0.00177867 -0.00547114 -0.0472876 -0.172819 0.00125 25
1 0.0741037 0.256075 0.0020082 -0.0395462 -0.0420375 -0.0398926 0.00125 26
1 0.0457518 0.0606918 0.00124187 -0.0681551 -0.000320873 0.190112 0.00125 27
1 0.159946 0.244599 0.00197112 0.0120811 -0.0202867 -0.0394596 0.00125 28
1 0.0453244 0.165693 0.00137814 0.011893 -0.0386226 -0.130779 0.00125 29
1 0.252649 0.0703514 0.001614 -0.00564578 -0.0464869 0.0993255 0.00125 30
1 0.143793 0.0905875 0.00134364 0.022068 0.0292782 -0.12661 0.00125 31
1 0.184774 0.0581834 0.00151532 0.0698001 -0.0170888 0.113837 0.00125 32
1 0.212033 0.122312 0.00135979 0.0433907 0.0181015 -0.285019 0.00125 33
1 0.216289 0.0587626 0.00152073 0.0489586 0.0291968 0.138975 0.00125 34
1 0.244894 0.144994 0.00172118 -0.00984759 -0.00610711 -0.239463 0.00125 35
1 0.284289 0.181917 0.00171279 -0.054516 -0.0125998 -0.196229 0.00125 36
1 0.19427 0.283271 0.00187865 0.0118162 -0.00836436 -0.225002 0.00125 37
1 0.0345654 0.167724 0.00137513 -0.0287034 -0.0300008 0.181241 0.00125 38
1 0.171096 0.00515412 0.00206605 -0.00660234 0.109025 -0.0529573 0.00125 39
1 0.140099 0.0570953 0.00123196 0.00978698 -0.0184037 -0.108785 0.00125 40
1 0.14385 0.0553585 0.00122922 0.0201962 0.0148989 0.022445 0.00125 41
1 0.246926 0.120035 0.00127556 0.0277397 -0.02928 -0.0444147 0.00125 42
1 0.259108 0.112787 0.00163548 -0.0107209 0.0131366 -0.212441 0.00125 43
1 0.191742 0.239447 0.00158223 0.0280151 0.0154409 -0.256993 0.00125 44
1 0.0948641 0.116006 0.00147907 0.0126557 -0.00199867 -0.235951 0.00125 45
1 0.257007 0.0492693 0.00126877 0.0698979 0.0250805 0.206151 0.00125 46
1 0.148267 0.0510355 0.00226987 -0.0232053 -0.00767321 -0.139225 0.00125 47
1 0.102628 0.160975 0.00215901 -0.000546444 -0.0472757 -0.158493 0.00125 48
1 0.143901 0.290961 0.00128098 0.0612118 0.0945869 0.175308 0.00125 49
1 0.14536 0.229532 0.00189788 0.0229007 0.0023458 -0.0835111 0.00125 50
1 0.0107961 0.123434 0.00129002 -0.0369887 0.0473693 0.0612798 0.00125 51
1 0.0116562 0.175245 0.00126066 0.0109712 -0.00622763 -0.015176 0.00125 52
1 0.228087 0.0640091 0.00135704 0.0476467 0.0204227 -0.128687 0.00125 53
1 0.111742 0.0828142 0.00244634 -0.0111476 0.0527721 -5.67281e-05 0.00125 54
1 0.000436305 0.272541 0.00189689 -0.0536992 -0.00326429 -0.168008 0.00125 55
1 0.0669732 0.0587593 0.00128276 -0.0334681 -0.0265373 0.196093 0.00125 56
1 0.146555 0.260726 0.00124969 -0.0486328 0.0330226 0.200404 0.00125 57
1 0.243558 0.0902991 0.00123106 -0.00680351 -0.0050225 -0.100543 0.00125 58
1 0.0745119 0.185977 0.00185455 0.00281708 -0.0490405 -0.0973935 0.00125 59
1 0.158622 0.207982 0.0014443 0.00239439 -0.00276113 -0.248093 0.00125 60
1 0.287272 0.279306 0.0021907 -0.0872342 -0.027563 -0.0328139 0.00125 61
1 0.0780749 0.067306 0.0012653 -0.0575194 -0.0544294 -0.0924429 0.00125 62
1 0.206211 0.108226 0.00133827 0.0452084 0.0119788 0.144422 0.00125 63
1 0.290315 0.279656 0.00215824 0.0387835 -0.0504154 -0.151892 0.00125 64
1 0.0980928 0.270916 0.00138336 0.0377195 0.0215559 0.245364 0.00125 65
1 0.0815827 0.0270631 0.00146194 0.059221 -0.0033554 -0.223358 0.00125 66
1 0.107222 0.0860393 0.00129565 0.0157209 -0.0085611 0.187965 0.00125 67
1 0.189422 0.115011 0.00143638 0.0455792 0.0321284 -0.199919 0.00125 68
1 0.0837338 0.222915 0.00123321 -0.00783239 -0.0134042 -0.0990882 0.00125 69
1 0.143717 0.261308 0.00194832 0.0293315 -0.075479 -0.194653 0.00125 70
1 0.0442146 0.155494 0.00132558 -0.00957524 -0.0339775 -0.227575 0.00125 71
1 0.185085 0.0343512 0.00127632 0.0526781 -0.0240559 0.207946 0.00125 72
1 0.260988 0.222621 0.00212378 -0.00420216 -0.0050546 -0.203023 0.00125 73
1 0.104602 0.277979 0.00238684 0.00736175 -0.0109357 -0.0344417 0.00125 74
1 0.045268 0.240867 0.00167118 -0.02275 0.0333735 -0.189772 0.00125 75
1 0.192372 0.0998577 0.00161753 0.0335502 0.0201132 -0.241056 0.00125 76
1 0.275415 0.0814666 0.00171678 0.0302884 0.0051417 -0.151002 0.00125 77
1 0.271462 0.0122185 0.00171713 0.000960032 0.044747 -0.157247 0.00125 78
1 0.118776 0.0637632 0.00156849 -0.0391842 -0.0530775 0.0959949 0.00125 79
1 0.0297807 0.00910368 0.00209589 -0.0259226 0.00600995 -0.0665434 0.00125 80
1 0.0389657 0.129708 0.0021788 0.0533065 0.0321622 -0.0543736 0.00125 81
1 0.0237257 0.227462 0.00133137 0.0973593 -0.0793389 0.0502173 0.00125 82
1 0.0420326 0.0132127 0.00149073 0.0110008 -0.016018 -0.204019 0.00125 83
1 0.248259 0.256674 0.00147112 -0.0492593 0.00703136 0.114594 0.00125 84
1 0.0224374 0.161022 0.00132772 0.0517989 0.0937406 0.0779509 0.00125 85
1 0.0728432 0.207341 0.0013358 -0.0135267 -0.00380062 -0.197798 0.00125 86
1 0.077439 0.043592 0.00125795 0.036921 -0.0119274 -0.234339 0.00125 87
1 0.0275013 0.168934 0.00122937 0.0243845 -0.0164593 0.0780845 0.00125 88
1 0.233144 0.106838 0.00143191 0.0259781 -0.0201582 -0.0763038 0.00125 89
1 0.200615 0.146218 0.00145765 0.100857 0.00291483 0.120886 0.00125 90
1 0.291825 0.0475088 0.00150444 0.0204156 0.0307119 0.117331 0.00125 91
1 0.0333486 0.213035 0.00126191 0.0105585 0.00220657 -0.223994 0.00125 92
1 0.144874 0.137487 0.00156402 0.0383413 0.000390842 0.201263 0.00125 93
1 0.196678 0.00165068 0.00186629 0.0388804 -0.0677465 -0.163369 0.00125 94
1 0.130952 0.100878 0.00172293 0.00548642 -0.0260413 -0.205398 0.00125 95
1 0.130226 0.217924 0.00150284 -0.0105847 0.00118229 -0.237533 0.00125 96
1 0.117852 0.190739 0.00153804 -0.02658 -0.0358305 0.165098 0.00125 97
1 0.00568688 0.253705 0.0015892 -0.0270555 0.0079657 -0.110451 0.00125 98
1 0.289665 0.114891 0.00150347 -0.00628079 -0.0116582 0.2258 0.00125 99
1 0.207963 0.18969 0.00146335 0.0219125 0.0129242 -0.216705 0.00125 100
1 0.250956 0.0407688 0.00135253 -0.0280048 -0.0165462 0.219779 0.00125 101
1 0.153071 0.0353837 0.00123193 0.00528109 0.015143 -0.172591 0.00125 102
1 0.0029251 0.0924741 0.00157756 0.00797939 -0.0767468 -0.201113 0.00125 103
1 0.200423 0.153231 0.00174793 0.095402 -0.0351753 -0.127946 0.00125 104
1 0.274847 0.017496 0.00166955 -0.0563359 0.106846 0.00300884 0.00125 105
1 0.178105 0.290143 0.00149158 0.0476295 0.0162214 -0.132989 0.00125 106
1 0.239373 0.209229 0.00169731 -0.00809712 -0.0325644 -0.104707 0.00125 107
1 0.141666 0.155871 0.00210631 0.0177062 0.0260059 -0.172166 0.00125 108
1 0.135283 0.0103347 0.00133891 0.0214163 0.00797904 0.0361781 0.00125 109
1 0.166099 0.0906792 0.00143425 -0.0607617 -0.0858904 0.0985288 0.00125 110
1 0.0838747 0.212603 0.00210755 0.00330557 -0.00120794 -0.169301 0.00125 111
1 0.0953983 0.0665487 0.00128567 0.000550538 -0.000274382 -0.227117 0.00125 112
1 0.272776 0.110298 0.00166606 -0.0191611 -0.0706162 -0.218472 0.00125 113
1 0.239137 0.240809 0.00138975 -0.00456286 -0.0447365 -0.235619 0.00125 114
1 0.0801268 0.26283 0.00132233 0.0356751 -0.0244102 0.240863 0.00125 115
1 0.17261 0.162823 0.00191917 0.0291492 -0.00193248 -0.211272 0.00125 116
1 0.253547 0.261161 0.00128789 0.0281274 0.00207733 0.250311 0.00125 117
1 0.232134 0.173929 0.00130823 0.0108057 0.00937353 -0.217249 0.00125 118
1 0.285624 0.19874 0.00249411 0.00593229 0.0247617 -0.0345176 0.00125 119
1 0.177118 0.136639 0.00127784 -0.000646944 -0.0292127 0.165831 0.00125 120
1 0.0251276 0.267697 0.00133082 0.00737533 0.0327475 -0.241571 0.00125 121
1 0.169607 0.181015 0.00146327 -0.0344336 0.0413014 0.155975 0.00125 122
1 0.27585 0.0898896 0.00180608 0.0053236 0.02203 -0.215663 0.00125 123
1 0.100329 0.0141157 0.0013353 -0.0681038 -0.0502328 -0.232582 0.00125 124
1 0.177081 0.172726 0.00145767 0.0355673 0.0282786 0.175677 0.00125 125
1 0.0681037 0.0627655 0.00140131 -0.013523 0.0215264 -0.0950623 0.00125 126
1 0.281848 0.134427 0.00131586 0.00213521 -0.00883787 -0.263604 0.00125 127
1 0.279374 0.041113 0.00130307 0.0285712 0.000411527 0.229283 0.00125 128
1 0.208496 0.204048 0.00204865 0.0399563 -0.0211051 -0.0618961 0.00125 129
1 0.0110089 0.108325 0.00137733 0.0429656 0.00337791 0.177561 0.00125 130
1 0.211881 0.150173 0.00128538 0.05602 -0.0025929 0.22715 0.00125 131
1 0.149412 0.157774 0.00126505 0.0390568 -0.0532458 0.231998 0.00125 132
1 0.189083 0.0830672 0.00129447 0.0219297 -0.00611869 -0.137289 0.00125 133
1 0.250016 0.267092 0.00149876 -0.000564621 2.64453e-05 -0.256112 0.00125 134
1 0.215694 0.217823 0.00127305 0.0198105 -0.0124457 0.168034 0.00125 135
1 0.180607 0.192067 0.00130504 -0.0266661 0.0433476 0.171766 0.00125 136
1 0.192379 0.254382 0.00168721 0.0152181 -0.00783968 -0.248331 0.00125 137
1 0.0195979 0.066332 0.00135974 0.0354047 -0.00197338 -0.185428 0.00125 138
1 0.00896454 0.0952987 0.00225904 0.0148732 -0.0165285 -0.0435567 0.00125 139
1 0.231948 0.130496 0.00209585 0.00508038 -0.0448084 -0.0269063 0.00125 140
1 0.0985422 0.226778 0.00136408 -0.0319566 0.019863 0.244934 0.00125 141
1 0.0599952 0.0122705 0.00148553 -0.039656 0.0198348 -0.252366 0.00125 142
1 0.202569 0.202475 0.00182241 0.0258525 0.0121056 -0.108324 0.00125 143
1 0.259598 0.233367 0.00141387 0.00934073 -0.0553802 0.13653 0.00125 144
1 0.174448 0.171871 0.00147342 -0.030019 0.0171259 -0.209717 0.00125 145
1 0.0415729 0.249709 0.00152034 -0.0095876 -0.01161 0.151657 0.00125 146
1 0.139408 0.0751041 0.00216755 -0.00999986 -0.031259 -0.0732709 0.00125 147
1 0.191161 0.249069 0.00173391 -0.0304152 0.0450687 -0.042108 0.00125 148
1 0.123369 0.00223498 0.00139661 -0.00409506 -0.0120276 0.0715544 0.00125 149
1 0.0852319 0.278401 0.00149672 -0.0173441 0.0233089 0.139197 0.00125 150
1 0.0403624 0.0279259 0.00123382 -0.00848142 0.0839547 0.0731672 0.00125 151
1 0.114521 0.272648 0.00159352 0.0194123 -0.0371923 0.0753376 0.00125 152
1 0.0299031 0.117511 0.00175379 -0.039249 0.000433129 -0.235408 0.00125 153
1 0.148603 0.178918 0.00161101 -0.00241214 0.00901601 -0.232909 0.00125 154
1 0.0994141 0.0771874 0.00156282 -0.0276518 0.0365418 -0.262685 0.00125 155
1 0.291498 0.00786151 0.00126555 -0.0666094 -0.00606012 0.111568 0.00125 156
1 0.264034 0.204188 0.00138364 0.00324387 -0.0249976 0.172927 0.00125 157
1 0.141293 0.255184 0.00137395 -0.0445611 -0.0281248 -0.271327 0.00125 158
1 0.262991 0.138733 0.00232086 0.049141 0.0485184 -0.122305 0.00125 159
1 0.18815 0.279276 0.00127895 -0.101586 0.0190585 -0.224176 0.00125 160
1 0.261828 0.2504 0.00155924 -0.0414181 0.000450409 -0.217931 0.00125 161
1 0.0948652 0.127913 0.00177108 -0.0866789 -0.00766209 -0.189254 0.00125 162
1 0.0289524 0.209797 0.00191316 -0.00301117 -0.026781 -0.118504 0.00125 163
1 0.0340804 0.0670844 0.00190114 0.00607193 0.0180954 -0.150486 0.00125 164
1 0.188409 0.177159 0.00134097 -0.00412458 0.00917024 0.107988 0.00125 165
1 0.209931 0.136447 0.0014018 -0.0425209 0.000470073 -0.142606 0.00125 166
1 0.0956876 0.173451 0.00131885 -0.0595294 -0.0224635 -0.213239 0.00125 167
1 0.151186 0.177237 0.00150344 -0.0489055 0.128738 -0.198825 0.00125 168
1 0.166876 0.267155 0.00151887 0.0299872 0.0283985 -0.185926 0.00125 169
1 0.264923 0.0423152 0.00176356 -0.0691711 -0.0246957 -0.146637 0.00125 170
1 0.267785 0.0865444 0.00134334 -0.000550857 0.0124778 -0.242447 0.00125 171
1 0.0526267 0.146169 0.00130679 0.0139592 -0.0345707 -0.0539375 0.00125 172
1 0.00917134 0.151849 0.00140041 -0.0594145 0.0188752 0.14441 0.00125 173
1 0.216966 0.0937866 0.00231444 0.0143753 0.0500019 -0.0515889 0.00125 174
1 0.25375 0.255533 0.00161817 0.0104727 -0.0764919 -0.227058 0.00125 175
1 0.0837102 0.0447049 0.00129859 -0.0673959 0.000340659 -0.0521138 0.00125 176
1 0.0601739 0.279787 0.00168885 -0.0235774 -0.0215708 -0.237075 0.00125 177
1 0.0868598 0.216775 0.0017213 -0.00157445 0.0172808 -0.055436 0.00125 178
1 0.191403 0.185129 0.00188643 0.0169178 0.00126655 -0.207648 0.00125 179
1 0.287184 0.107952 0.00164806 -0.0341474 0.0017943 0.0100415 0.00125 180
1 0.0673269 0.0292081 0.00126125 0.0122105 0.0581893 0.206603 0.00125 181
1 0.0790405 0.0641124 0.00150812 -0.01988 0.0200189 -0.211147 0.00125 182
1 0.183842 0.061268 0.00134963 0.0230579 -0.0341326 0.238499 0.00125 183
1 0.221533 0.0294059 0.00124332 -0.0513396 0.0391659 0.248447 0.00125 184
1 0.140522 0.22735 0.00151385 0.0187336 0.018615 -0.219276 0.00125 185
1 0.133184 0.209886 0.0018913 0.0870193 0.0129372 -0.135186 0.00125 186
1 0.274682 0.158825 0.00134658 0.0595887 -0.000969493 0.196762 0.00125 187
1 0.0785889 0.253525 0.00161377 -0.0394704 -0.00308258 -0.0844241 0.00125 188
1 0.102575 0.232816 0.0013388 0.00134106 -0.0162947 -0.210578 0.00125 189
1 0.177066 0.261423 0.001512 -0.127679 -0.0362525 0.0309763 0.00125 190
1 0.0797942 0.212595 0.00164224 -0.0442736 -0.033857 -0.206388 0.00125 191
1 0.130868 0.121298 0.00126454 0.00497612 -0.00287682 0.261525 0.00125 192
1 0.288466 0.194525 0.00188251 -0.030095 -0.000689757 -0.20189 0.00125 193
1 0.1096 0.0782783 0.00123447 0.00878595 0.00715482 -0.220606 0.00125 194
1 0.257041 0.255917 0.0019861 0.0308471 -0.0198825 -0.0568402 0.00125 195
1 0.064665 0.211159 0.00151405 -0.0235535 -0.0345691 0.11835 0.00125 196
1 0.157919 0.274351 0.0024142 -0.113545 -0.0367153 -0.0010665 0.00125 197
1 0.111544 0.277624 0.00134241 0.0573141 0.0237473 0.246976 0.00125 198
1 0.210979 0.052326 0.00172438 -0.0147075 -0.0154591 -0.271314 0.00125 199
1 0.145026 0.258232 0.00152965 0.0279302 0.0463568 0.100061 0.00125 200
1 0.0870699 0.0128824 0.00191568 -0.0224772 0.00262819 -0.202576 0.00125 201
1 0.238417 0.0441791 0.00228514 0.00816242 -0.0158326 -0.130756 0.00125 202
1 0.24735 0.200598 0.00127176 -0.047873 0.0321872 0.201349 0.00125 203
1 0.225173 0.0972826 0.00142089 -0.004574 0.012421 0.207077 0.00125 204
1 0.168056 0.245197 0.00204821 0.0556456 0.0643287 0.00848252 0.00125 205
1 0.286103 0.220094 0.00127187 0.00128048 -0.00296796 -0.280588 0.00125 206
1 0.103012 0.143022 0.00136998 -0.00523703 0.0101136 -0.0997642 0.00125 207
1 0.184207 0.225257 0.00137237 -0.0559592 0.0437802 -0.214429 0.00125 208
1 0.283561 0.281328 0.00190077 0.0301509 -0.0398503 -0.141337 0.00125 209
1 0.284761 0.00674751 0.00174003 -0.003965 0.0266495 -0.258081 0.00125 210
1 0.0419793 0.0417563 0.00175078 -0.0375994 -0.00267638 -0.119511 0.00125 211
1 0.141849 0.0742697 0.00125472 0.0110208 -0.0909618 0.129953 0.00125 212
1 0.11243 0.26208 0.0014617 0.0125158 0.123756 0.0741761 0.00125 213
1 0.231387 0.238978 0.00190441 -0.0276575 -0.00756302 -0.207704 0.00125 214
1 0.071681 0.112101 0.00155729 0.0289434 -0.0507774 -0.262073 0.00125 215
1 0.0802673 0.255478 0.00157597 -0.0611808 -0.0178333 -0.186092 0.00125 216
1 0.122589 0.0691983 0.00123441 0.00154535 0.0181847 0.195918 0.00125 217
1 0.277766 0.264318 0.00160286 -0.0234758 -0.016818 -0.26705 0.00125 218
1 0.116984 0.284359 0.00157912 0.0455394 0.00847141 -0.28892 0.00125 219
1 0.274005 0.000670825 0.00141304 0.0109338 -0.00051303 0.145059 0.00125 220
1 0.0285203 0.0833681 0.00190002 -0.0857282 -0.0127597 -0.20513 0.00125 221
1 0.213979 0.173164 0.00152664 -0.0522165 0.0124134 0.0788997 0.00125 222
1 0.0498277 0.261822 0.00133457 0.00126669 -0.0289545 -0.253923 0.00125 223
1 0.2564 0.200423 0.0014426 -0.00933064 -0.0936971 -0.222342 0.00125 224
1 0.222573 0.125646 0.00191052 -0.00372647 0.0140102 -0.0864353 0.00125 225
1 0.0500907 0.0527992 0.00160481 0.0311583 0.00577136 -0.236831 0.00125 226
1 0.186772 0.160936 0.00175941 0.102624 -0.0196007 -0.192115 0.00125 227
1 0.0679009 0.245021 0.00149245 0.00457833 0.0168744 -0.26227 0.00125 228
1 0.0797253 0.180647 0.00215564 0.0101579 -0.0292002 -0.0536172 0.00125 229
1 0.261945 0.23447 0.00129089 0.0299758 -0.0102376 0.19281 0.00125 230
1 0.258847 0.221259 0.00174638 -0.014194 0.0208208 -0.20784 0.00125 231
1 0.112565 0.0598627 0.00124185 0.0169957 0.0218686 -0.23044 0.00125 232
1 0.195003 0.0191124 0.00197172 0.000612702 -0.0991756 -0.0670861 0.00125 233
1 0.00251981 0.0743885 0.00129738 -0.0219796 -0.0115748 -0.208816 0.00125 234
1 0.264762 0.143243 0.00178355 0.0240253 -0.051914 -0.168801 0.00125 235
1 0.239564 0.140034 0.00137763 -0.0290671 0.00756043 0.206142 0.00125 236
1 0.264528 0.0355744 0.00175976 -0.0129499 -0.0495962 -0.129458 0.00125 237
1 0.0697639 0.188569 0.00178974 -0.0602749 0.0187851 -0.227628 0.00125 238
1 0.171694 0.249834 0.00229222 0.00620157 0.0119967 -0.0921614 0.00125 239
1 0.0688313 0.277449 0.0015356 -0.0409032 0.0599791 0.0519956 0.00125 240
1 0.0425649 0.241753 0.00141617 0.0233703 -0.00753256 -0.226231 0.00125 241
1 0.205363 0.205989 0.00164651 0.0829165 -0.0064897 0.0383087 0.00125 242
1 0.0825749 0.075641 0.00145902 0.00996489 -0.0123268 -0.0888765 0.00125 243
1 0.106888 0.102115 0.0014947 -0.0100554 0.0117747 0.0692985 0.00125 244
1 0.0159301 0.149918 0.00226842 0.0413309 0.0244047 -0.137196 0.00125 245
1 0.152375 0.24975 0.00185 -0.0402771 -0.0461629 -0.0558749 0.00125 246
1 0.0792874 0.174944 0.00124248 0.000479534 0.00754732 -0.189327 0.00125 247
1 0.00944035 0.128697 0.0021738 0.024223 0.00448087 0.0136108 0.00125 248
1 0.267767 0.13053 0.00134333 -0.0168263 0.0165679 -0.241323 0.00125 249
1 0.112683 0.0260922 0.00175523 0.00466015 0.024259 -0.206098 0.00125 250
1 0.0367162 0.14906 0.00168256 -0.0425866 0.00532421 -0.099013 0.00125 251
1 0.0478841 0.196273 0.00181448 0.0598153 0.00164528 -0.202871 0.00125 252
1 0.0112488 0.0774387 0.0013244 0.0574685 -0.0121499 -0.0818096 0.00125 253
1 0.203336 0.12772 0.00199507 -0.00132291 0.0275229 -0.0982193 0.00125 254
1 0.246147 0.160935 0.00136142 0.016077 -0.0073009 -0.210353 0.00125 255
1 0.101116 0.258172 0.00131134 0.028842 -0.0271248 0.199546 0.00125 256
1 0.0584399 0.216752 0.00135753 -0.0959515 -0.10468 -0.0827122 0.00125 257
1 0.188423 0.263956 0.00149629 0.00233258 -0.0387082 0.0727208 0.00125 258
1 0.138367 0.0592572 0.00164745 0.0225613 0.0158468 0.110845 0.00125 259
1 0.234899 0.0913265 0.0015625 0.0398036 0.0274304 -0.164587 0.00125 260
1 0.135449 0.168159 0.00155936 0.0426783 -0.00913545 -0.213994 0.00125 261
1 0.0573597 0.088483 0.0014605 -0.0104999 -0.0181067 0.100746 0.00125 262
1 0.256323 0.0829615 0.00158869 0.0187554 -0.0144816 -0.222498 0.00125 263
1 0.261104 0.0871091 0.00155984 0.0303391 -0.0515258 -0.0929436 0.00125 264
1 0.214148 0.0680034 0.00154339 -0.0241936 0.0453706 0.131761 0.00125 265
1 0.105118 0.198118 0.00140183 -0.016986 0.0565251 0.0688892 0.00125 266
1 0.162644 0.147968 0.00123248 0.00430409 0.021129 0.126409 0.00125 267
1 0.249178 0.250887 0.0014587 0.0896668 -0.0500503 -0.219299 0.00125 268
1 0.149058 0.0190101 0.00161419 -0.00118815 -0.000673742 0.0974773 0.00125 269
1 0.0475521 0.255625 0.00245273 -0.00629495 0.00815575 0.0103892 0.00125 270
1 0.267355 0.0564244 0.00122647 -0.00746064 -0.000174542 -0.0427346 0.00125 271
1 0.150827 0.246494 0.00127668 -0.0580986 -0.038802 -0.108542 0.00125 272
1 0.106507 0.0705006 0.00215144 -0.0376656 -0.0483249 -0.0525941 0.00125 273
1 0.105124 0.135618 0.0018904 -0.0239033 0.058942 -0.074979 0.00125 274
1 0.0593251 0.14011 0.00194498 0.0073631 0.0596056 -0.14126 0.00125 275
1 0.14897 0.0603516 0.00179459 0.0291916 0.0127959 -0.155749 0.00125 276
1 0.270651 0.0928589 0.00161932 -0.00717689 0.058822 0.0363854 0.00125 277
1 0.00540601 0.211935 0.00199359 0.0113878 0.0441137 -0.132393 0.00125 278
1 0.0990282 0.291386 0.00222617 0.00299911 0.00658799 -0.152093 0.00125 279
1 0.0477854 0.0624714 0.00135773 -0.0235881 -0.063284 0.191264 0.00125 280
1 0.133424 0.067542 0.00204461 0.033151 0.0226984 -0.15975 0.00125 281
1 0.26363 0.011829 0.00178392 0.0250598 0.0439584 -0.0599757 0.00125 282
1 0.202008 0.265113 0.0014179 0.0113045 0.0160273 -0.202834 0.00125 283
1 0.264253 0.140748 0.00143346 -0.0132602 -0.00757676 0.193673 0.00125 284
1 0.0653384 0.184304 0.00162998 -0.0406357 0.0327651 -0.10508 0.00125 285
1 0.0674823 0.196082 0.00151768 0.0190026 -0.0255342 -0.211396 0.00125 286
1 0.189068 0.17031 0.0012674 -0.000408527 0.0385791 -0.0160293 0.00125 287
1 0.1809 0.200315 0.00125442 -0.0059785 0.0111235 0.242796 0.00125 288
1 0.164142 0.219399 0.00126587 0.0233163 -0.067073 -0.244941 0.00125 289
1 0.213835 0.215519 0.00156559 -0.0504623 -0.0122128 -0.196157 0.00125 290
1 0.185496 0.13212 0.00151012 -0.00937725 0.0290463 0.188953 0.00125 291
1 0.0485865 0.236879 0.00177405 0.0056307 -0.0391939 -0.12403 0.00125 292
1 0.0244505 0.186049 0.0012846 0.0232995 -0.0248491 -0.197412 0.00125 293
1 0.103752 0.270021 0.00143392 -0.0288128 -0.0111473 0.0302758 0.00125 294
1 0.194764 0.0062793 0.00166854 0.0220679 0.0735893 -0.109593 0.00125 295
1 0.137075 0.0156321 0.00133336 0.0566797 -0.0350476 0.172853 0.00125 296
1 0.124428 0.173511 0.00232409 -0.00242459 0.0207878 -0.0515175 0.00125 297
1 0.0523183 0.111341 0.00226597 -0.0648552 0.0121794 -0.065218 0.00125 298
1 0.0485669 0.00983026 0.0014182 -0.00383071 -0.0219356 0.187113 0.00125 299
1 0.18406 0.18778 0.00137455 0.0201051 0.0139636 -0.244096 0.00125 300
1 0.164468 0.116687 0.00151822 -0.060863 0.00701402 -0.242398 0.00125 301
1 0.1959 0.19326 0.0012315 0.0020675 0.0112674 -0.12657 0.00125 302
1 0.164259 0.0504637 0.00146841 -0.0105404 -0.00167544 -0.271205 0.00125 303
1 0.0702194 0.0813639 0.00181516 0.00940132 -0.064164 -0.209274 0.00125 304
1 0.0569601 0.204421 0.00126198 -0.0138654 0.0249518 0.188202 0.00125 305
1 0.257761 0.267556 0.00201744 -0.00646197 0.0208315 -0.0961278 0.00125 306
1 0.0562425 0.175336 0.00166014 -0.0124054 -0.0211764 -0.206958 0.00125 307
1 0.0934919 0.113463 0.00143236 0.0523527 -0.0345433 -0.180384 0.00125 308
1 0.18143 0.202813 0.00222532 -0.0554912 -0.0541045 -0.033371 0.00125 309
1 0.0507202 0.00446052 0.00152349 -0.0143912 -0.0189683 -0.212806 0.00125 310
1 0.106113 0.18829 0.00142885 0.00448712 -0.0104103 0.137524 0.00125 311
1 0.183603 0.109051 0.00158567 -0.0225336 -0.0040838 -0.283636 0.00125 312
1 0.267618 0.159085 0.00155993 0.00821425 -0.0292078 0.164762 0.00125 313
1 0.125518 0.152213 0.00160753 -0.0106122 0.0550901 -0.237298 0.00125 314
1 0.276035 0.253193 0.00123052 -0.00518579 0.0163353 -0.00419756 0.00125 315
1 0.0128958 0.27802 0.00135148 0.0205047 0.0387733 0.0562423 0.00125 316
1 0.204207 0.101125 0.00141934 -0.0032914 0.00692689 0.150228 0.00125 317
1 0.0176441 0.191717 0.00123541 0.0204054 0.023247 -0.134242 0.00125 318
1 0.256827 0.212211 0.00139023 -0.0435772 -0.00212756 -0.29601 0.00125 319
1 0.107608 0.0013693 0.00153945 -0.0673852 0.0666228 -0.221268 0.00125 320
1 0.204339 0.210155 0.00169922 0.0255939 0.0661804 -0.0696871 0.00125 321
1 0.148694 0.0859284 0.00229554 -0.0364628 -0.028343 -0.124279 0.00125 322
1 0.0586468 0.189077 0.00215331 -0.0384525 -0.0397929 -0.065247 0.00125 323
1 0.230804 0.25888 0.00126953 -0.0196602 -0.00602234 -0.231131 0.00125 324
1 0.254165 0.0724081 0.00142663 0.00704715 -0.0827895 0.144705 0.00125 325
1 0.0226547 0.221751 0.00187663 0.0259935 0.018293 -0.208734 0.00125 326
1 0.117128 0.0932371 0.00147931 -0.00527769 -0.0189983 0.134685 0.00125 327
1 0.0354452 0.253387 0.00178241 -0.00956738 -0.0175101 -0.0379721 0.00125 328
1 0.258255 0.0221903 0.00179877 -0.0357967 0.0296425 -0.219245 0.00125 329
1 0.178544 0.145246 0.00153808 -0.00871049 0.0867399 -0.219192 0.00125 330
1 0.094453 0.216708 0.00130597 0.0356745 -0.0388694 0.0613971 0.00125 331
1 0.192242 0.263565 0.00154195 -0.0329382 -0.0332329 0.099031 0.00125 332
1 0.00128922 0.250779 0.00226785 -0.0574929 0.00463551 -0.0591377 0.00125 333
1 0.252503 0.086861 0.00148152 0.00269001 0.0218543 0.182231 0.00125 334
1 0.00367637 0.250484 0.00153822 -0.0561751 -0.0181715 0.0802025 0.00125 335
1 0.15691 0.0265266 0.00147336 -0.00330085 -0.00368436 -0.255415 0.00125 336
1 0.193904 0.28635 0.00140797 0.0550403 -0.0101102 0.176829 0.00125 337
1 0.239248 0.269591 0.00139414 -0.0153604 -0.0289187 0.199807 0.00125 338
1 0.105459 0.282983 0.00142335 -0.0117831 -0.00485377 0.125347 0.00125 339
1 0.154665 0.0237969 0.00217075 0.00197944 0.0101789 -0.157942 0.00125 340
1 0.197915 0.0344379 0.00127465 -0.0382925 0.0578462 -0.245841 0.00125 341
1 0.0234297 0.122623 0.0014344 -0.00653271 -0.00423687 0.210594 0.00125 342
1 0.185641 0.263884 0.00160109 0.0107356 0.0200671 -0.0800847 0.00125 343
1 0.146474 0.196416 0.00139524 -0.0213464 0.0190996 0.175822 0.00125 344
1 0.140687 0.243034 0.00142479 0.0303912 -0.0419047 -0.0365 0.00125 345
1 0.265569 0.272755 0.00203441 -0.0136964 0.00981499 -0.187061 0.00125 346
1 0.226601 0.131521 0.00135734 0.00231835 -0.0129907 0.174019 0.00125 347
1 0.112437 0.139061 0.00146155 -0.0152081 -0.0748208 -0.192889 0.00125 348
1 0.242877 0.177737 0.00123645 -0.0104935 -0.0142414 -0.0373319 0.00125 349
1 0.0225378 0.0585562 0.00174163 -0.0296353 0.0179863 -0.234738 0.00125 350
1 0.29259 0.292181 0.00129921 0.021176 0.00355906 0.225008 0.00125 351
1 0.0950528 0.105369 0.00167115 -0.0136294 0.00452576 -0.180105 0.00125 352
1 0.251338 0.158444 0.00183624 -0.0139628 0.0679706 -0.0476059 0.00125 353
1 0.140517 0.108586 0.00152481 0.0996794 -0.0672418 -0.0672026 0.00125 354
1 0.12215 0.11555 0.00160707 -0.0540714 0.0182091 -0.181735 0.00125 355
1 0.0641851 0.250215 0.00168403 0.0415586 0.0163432 -0.177284 0.00125 356
1 0.0837404 0.235705 0.0018573 -0.032348 0.00905404 -0.146332 0.00125 357
1 0.291971 0.24791 0.0018975 0.0372318 0.0110976 -0.150342 0.00125 358
1 0.0425262 0.219852 0.00215156 0.0244832 -0.0319138 0.00101369 0.00125 359
1 0.01961 0.117615 0.00166064 -0.0444929 -0.00431791 0.127053 0.00125 360
1 0.0407629 0.288865 0.00132754 -0.0205429 0.0134004 -0.232705 0.00125 361
1 0.106067 0.0760317 0.00155308 0.0158291 0.040007 0.141012 0.00125 362
1 0.110906 0.159442 0.00143302 -0.0166865 0.0200878 -0.208099 0.00125 363
1 0.199169 0.0677751 0.00187472 -0.0956724 0.0377131 -0.169872 0.00125 364
1 0.0337586 0.242164 0.00152381 -0.0132301 -0.0346314 0.0782704 0.00125 365
1 0.147672 0.225353 0.00217596 0.0195539 0.0343656 -0.157852 0.00125 366
1 0.0806184 0.282609 0.00160857 -0.0089769 0.0608124 -0.22447 0.00125 367
1 0.150419 0.238051 0.00133896 -0.023299 -0.0175156 0.200563 0.00125 368
1 0.0738386 0.149528 0.00174924 0.0239878 0.00573876 -0.16662 0.00125 369
1 0.00908212 0.085703 0.00177422 0.0770074 -0.0235104 -0.177501 0.00125 370
1 0.130877 0.118636 0.00157018 0.0173298 -0.000888801 -0.18246 0.00125 371
1 0.0724898 0.266039 0.0023686 0.0273425 0.0418816 -0.125376 0.00125 372
1 0.286857 0.119747 0.00173221 0.0553669 0.030917 -0.203934 0.00125 373
1 0.0814596 0.176254 0.00123036 -0.0122853 -0.0143885 0.11537 0.00125 374
1 0.148631 0.124734 0.00126064 0.0123199 -0.00325664 0.0416393 0.00125 375
1 0.0697173 0.15468 0.00127012 0.06361 0.0264828 -0.214228 0.00125 376
1 0.0989868 0.0335828 0.00192541 0.00853216 0.0185953 -0.193387 0.00125 377
1 0.119538 0.0838893 0.00246433 -0.0067722 -0.0711811 -0.0183165 0.00125 378
1 0.189407 0.227591 0.0019863 0.0256565 0.00359527 -0.0240904 0.00125 379
1 0.19348 0.218016 0.00123875 -0.0325587 0.0119775 -0.218676 0.00125 380
1 0.234336 0.249592 0.00130244 -0.00998992 0.0659063 0.0303768 0.00125 381
1 0.170414 0.291094 0.00180089 -0.036339 0.0488134 -0.112667 0.00125 382
1 0.00553334 0.18538 0.00127834 0.0473248 -0.00730006 -0.266065 0.00125 383
1 0.162082 0.190073 0.00172276 -0.0798374 0.0416861 -0.0516771 0.00125 384
1 0.17644 0.188378 0.00236726 -0.0141145 0.0192942 -0.0785208 0.00125 385
1 0.186949 0.266676 0.00129017 -0.0244337 0.0681718 -0.0874996 0.00125 386
1 0.0935621 0.200938 0.00193947 -0.0805971 0.0683721 -0.124632 0.00125 387
1 0.256597 0.139358 0.00186903 -0.020619 0.025908 -0.07753 0.00125 388
1 0.285073 0.1346 0.00240537 0.000639939 0.0286502 0.0124604 0.00125 389
1 0.194756 0.151124 0.00126125 0.0642469 -0.0142269 0.0436479 0.00125 390
1 0.0200673 0.249966 0.00145474 0.000921381 -0.0032806 0.165452 0.00125 391
1 0.187738 0.0856417 0.00125325 0.0161039 0.103416 -0.25075 0.00125 392
1 0.00113561 0.00981703 0.00137134 0.0677505 0.0278637 -0.113923 0.00125 393
1 0.291431 0.0143909 0.00135982 -0.0100517 -0.00377697 0.236111 0.00125 394
1 0.177285 0.264126 0.0016681 -0.0229991 0.0441005 0.0676744 0.00125 395
1 0.0340258 0.177387 0.00155496 -0.0347771 0.0215969 -0.199611 0.00125 396
1 0.191339 0.117406 0.00216961 -0.0951052 -0.0257053 -0.172495 0.00125 397
1 0.246839 0.189576 0.00170651 0.0404515 0.0219465 -0.197914 0.00125 398
1 0.131399 0.142977 0.00142649 -0.00885727 0.0132946 0.233827 0.00125 399
1 0.218416 0.131937 0.00125729 -0.0301534 0.0565993 -0.207718 0.00125 400