ITEM: TIMESTEP
1000000
ITEM: NUMBER OF ATOMS
10000
ITEM: BOX BOUNDS pp pp ff
0.0000000000000000e+00 4.5521514125000007e-01
0.0000000000000000e+00 4.5521514125000007e-01
-1.2500000000000001e-02 1.2500000000000001e-02
ITEM: ATOMS type x y z vx vy vz radius id
1 0.180526 0.193329 0.00125265 0.0249115 0.00897134 0.219941 0.00125 1
1 0.353418 0.244192 0.00148526 -0.0125847 -0.0104519 0.11796 0.00125 2
1 0.255746 0.26754 0.00156137 -0.0107681 0.0167618 -0.176484 0.00125 3
1 0.115306 0.29156 0.00139339 -0.0162035 -0.0113373 -0.223924 0.00125 4
1 0.394085 0.298855 0.00139191 -0.0178965 -0.0104111 -0.20157 0.00125 5
1 0.189738 0.182481 0.00146481 -0.00563844 -0.0175844 0.138797 0.00125 6
1 0.141015 0.254699 0.00247371 0.0096472 -0.0201959 -0.0361221 0.00125 7
1 0.349866 0.321495 0.00142967 -0.0026527 -0.00630672 0.223013 0.00125 8
1 0.102574 0.215647 0.0012892 -0.0638544 -0.0398846 0.180784 0.00125 9
1 0.21201 0.128773 0.00155233 -0.0605298 -0.0470717 -0.213177 0.00125 10
1 0.0422504 0.184961 0.00190051 0.00992711 0.0127477 -0.214451 0.00125 11
1 0.23935 0.367172 0.00139315 -0.0244914 -0.00381954 -0.201162 0.00125 12
1 0.277454 0.0784473 0.00158294 -0.0211843 -0.0190003 -0.183284 0.00125 13
1 0.416085 0.311842 0.00164936 0.000990068 0.000543024 -0.270813 0.00125 14
1 0.0953574 0.295895 0.00152791 -0.020064 0.0105864 0.111218 0.00125 15
1 0.32623 0.0227644 0.00145752 0.0101555 0.0308529 -0.232968 0.00125 16
1 0.29575 0.423301 0.00158661 0.00322111 0.0374257 0.0839282 0.00125 17
1 0.437971 0.143536 0.00132071 -0.0241778 0.0137616 -0.184228 0.00125 18
1 0.437126 0.101506 0.00123902 0.00995085 0.0212044 0.196816 0.00125 19
1 0.337914 0.20641 0.0018376 -0.0370277 0.0103268 -0.253997 0.00125 20
1 0.152667 0.160911 0.00177285 0.004095 0.0145476 -0.220966 0.00125 21
1 0.273483 0.307405 0.00140912 -0.00285602 0.00484183 0.146313 0.00125 22
1 0.2966 0.0548516 0.00164168 -0.00944625 -0.00304165 0.0921473 0.00125 23
1 0.379551 0.334746 0.00161715 -0.0194418 0.0066186 -0.0907353 0.00125 24
1 0.245754 0.185977 0.0012929 -0.00675957 -0.000591436 0.23552 0.00125 25
1 0.115744 0.282636 0.00163341 0.0176301 -0.00818486 -0.227672 0.00125 26
1 0.451431 0.274763 0.0013453 0.0203313 -0.0138144 -0.279925 0.00125 27
1 0.410957 0.217881 0.00169472 -0.00719479 -0.024708 -0.273013 0.00125 28
1 0.201912 0.135309 0.00137032 -0.00757063 0.0180093 -0.307348 0.00125 29
1 0.200678 0.229941 0.00153135 -0.018299 0.0116758 -0.229742 0.00125 30
1 0.249582 0.181875 0.00229258 -0.0106565 -0.0109714 -0.0475249 0.00125 31
1 0.189816 0.217746 0.0021424 0.0148426 0.00674242 -0.028576 0.00125 32
1 0.286034 0.415808 0.00162971 0.0440906 -0.00140941 -0.0902101 0.00125 33
1 0.0950232 0.129316 0.00152602 -0.0126278 0.00632577 0.111881 0.00125 34
1 0.0858333 0.276237 0.00172579 -0.00147986 -0.00403038 -0.185175 0.00125 35
1 0.443444 0.194988 0.0013968 -0.00359994 -0.011943 0.175236 0.00125 36
1 0.44552 0.185373 0.00126518 -0.00419109 -0.00931967 0.192458 0.00125 37
1 0.247989 0.180068 0.00125949 0.00393267 0.0125587 0.194131 0.00125 38
1 0.266487 0.194659 0.00144251 -0.0142758 -0.0191124 -0.217494 0.00125 39
1 0.293964 0.247064 0.0014347 0.00677731 -0.0092943 -0.240665 0.00125 40
1 0.309454 0.34413 0.00128221 -0.0219332 -0.00391292 -0.22988 0.00125 41
1 0.241984 0.271004 0.00126299 -0.0203343 -0.0270689 0.280466 0.00125 42
1 0.320162 0.151503 0.00163209 -0.00862267 0.0163684 -0.0891554 0.00125 43
1 0.0722212 0.293091 0.00144449 -0.020179 -0.0095782 0.144092 0.00125 44
1 0.18421 0.218132 0.00123123 -0.0127634 -0.00417451 0.125015 0.00125 45
1 0.194338 0.423494 0.00126296 0.0104982 0.0132673 0.193162 0.00125 46
1 0.242903 0.102534 0.00197991 0.0155404 -0.00665695 -0.0523994 0.00125 47
1 0.0909124 0.248674 0.0017124 0.0187567 0.0149521 -0.225128 0.00125 48
1 0.157432 0.0253284 0.00130247 -0.000527434 -0.0134507 0.0483435 0.00125 49
1 0.0344476 0.277379 0.0013233 -0.00391101 -0.0240037 0.224612 0.00125 50
1 0.301819 0.352535 0.00132181 -0.0342999 0.00346779 0.167898 0.00125 51
1 0.337694 0.182313 0.0013231 0.0222412 0.00643568 0.172343 0.00125 52
1 0.448752 0.234929 0.00172334 -0.019124 -0.00372742 0.109832 0.00125 53
1 0.169071 0.363203 0.00136229 -0.00967632 -0.0223465 -0.253179 0.00125 54
1 0.132579 0.425034 0.00169589 0.0144836 -0.000632033 0.0991319 0.00125 55
1 0.228808 0.198944 0.00158305 0.000886501 -0.00684869 0.145252 0.00125 56
1 0.0843558 0.426712 0.00151927 -0.014568 -0.00945763 0.106854 0.00125 57
1 0.31881 0.390127 0.00135503 -0.0161446 0.0171036 0.270935 0.00125 58
1 0.132348 0.0420964 0.0013598 -0.0234457 0.0126201 -0.226153 0.00125 59
1 0.439043 0.123295 0.00183636 0.00906763 0.00902954 -0.212911 0.00125 60
1 0.21653 0.393566 0.00125722 -0.0265381 0.00458181 0.0937784 0.00125 61
1 0.211814 0.167835 0.00155071 -0.00676022 -0.00307875 -0.176006 0.00125 62
1 0.156638 0.413727 0.00164529 0.0141188 -0.0245782 -0.171363 0.00125 63
1 0.334766 0.180913 0.00141221 0.0189221 -0.0181422 0.11538 0.00125 64
1 0.403846 0.189753 0.00125428 -0.00189954 -0.00600579 0.214461 0.00125 65
1 0.282352 0.0775953 0.00128792 -0.0150925 -0.000679902 -0.0116531 0.00125 66
1 0.0828698 0.223282 0.00172757 0.0243659 0.00545316 0.069661 0.00125 67
1 0.0604658 0.408994 0.00126228 0.00207611 0.0154591 0.248922 0.00125 68
1 0.29673 0.169421 0.00186255 -0.110603 -0.0266141 -0.153359 0.00125 69
1 0.196559 0.256473 0.00150411 -0.0138033 -0.00493832 -0.0627332 0.00125 70
1 0.267267 0.198019 0.00160718 0.00837358 -0.000523802 -0.278216 0.00125 71
1 0.421778 0.147121 0.00158721 0.00176348 -0.00944486 -0.0935859 0.00125 72
1 0.0195642 0.206216 0.00173998 -0.0103338 -0.00608913 -0.218557 0.00125 73
1 0.318571 0.445928 0.00190807 0.00083664 0.00880485 -0.148674 0.00125 74
1 0.241976 0.182182 0.00131069 -0.00570042 -0.0118734 -0.08307 0.00125 75
1 0.0515505 0.0267983 0.00127925 -0.00221115 0.00653811 -0.198573 0.00125 76
1 0.102957 0.261241 0.00177382 0.0331675 0.0216746 -0.0843963 0.00125 77
1 0.0240173 0.431127 0.00123231 0.017405 -0.00974263 0.0235444 0.00125 78
1 0.415847 0.0229191 0.00147891 0.0130752 0.0335938 -0.194838 0.00125 79
1 0.185587 0.426271 0.0015851 -0.00730252 0.00981842 -0.188515 0.00125 80
1 0.22139 0.271928 0.00135251 0.0136648 -0.000543204 -0.103666 0.00125 81
1 0.323322 0.361072 0.00137094 -0.0189054 0.000858801 0.253214 0.00125 82
1 0.36524 0.148208 0.0014244 0.0008755 -0.00756097 -0.240331 0.00125 83
1 0.144314 0.0618445 0.00127944 -0.00404354 -0.00890353 -0.229336 0.00125 84
1 0.182781 0.265619 0.00216379 -0.0267623 0.0274941 -0.0494145 0.00125 85
1 0.240579 0.185267 0.00144086 -0.00666137 -0.0122748 -0.104377 0.00125 86
1 0.373673 0.45325 0.00138538 -0.015507 0.0332608 0.22223 0.00125 87
1 0.28751 0.345966 0.0014013 0.0180588 -0.0175128 0.172907 0.00125 88
1 0.254052 0.40063 0.00157365 0.0119236 -0.0158143 -0.178968 0.00125 89
1 0.35807 0.370495 0.00123475 -0.0112102 -0.00686793 0.14791 0.00125 90
1 0.285458 0.12071 0.00132324 -0.00341405 0.00966318 -0.23544 0.00125 91
1 0.338273 0.0231942 0.00151095 0.0143511 0.013987 -0.235269 0.00125 92
1 0.226179 0.36492 0.00206898 0.00252268 0.00163333 0.00465766 0.00125 93
1 0.333853 0.148752 0.0013393 -0.000971083 -0.0102821 0.170244 0.00125 94
1 0.378812 0.368981 0.00135003 -0.0193612 0.0150069 0.240172 0.00125 95
1 0.325874 0.214428 0.00196989 -0.0186739 -0.00827092 -0.0673966 0.00125 96
1 0.208502 0.295579 0.00126908 -0.0192031 -0.0127004 -0.255986 0.00125 97
1 0.181113 0.400371 0.00134209 0.000324307 -7.42135e-05 0.189058 0.00125 98
1 0.44547 0.146746 0.00234349 -0.0156599 -0.00783751 -0.0436959 0.00125 99
1 0.411029 0.402874 0.00162465 0.00846004 -0.00868675 -0.22903 0.00125 100
1 0.0309311 0.439486 0.00127642 0.0101298 -0.0126066 0.251463 0.00125 101
1 0.0886179 0.224985 0.00126846 0.0123261 0.00108818 0.191093 0.00125 102
1 0.429786 0.208815 0.00186421 0.0189867 0.00690281 -0.222654 0.00125 103
1 0.0543499 0.0594733 0.00156489 -0.00944066 -0.0191624 0.107526 0.00125 104
1 0.283244 0.365263 0.00183162 -0.0359103 -0.00160647 -0.0765169 0.00125 105
1 0.329841 0.174425 0.00222666 -0.00201711 0.00467582 -0.177989 0.00125 106
1 0.0614448 0.361506 0.00232913 -0.00311442 0.00670234 -0.0504205 0.00125 107
1 0.112236 0.0989173 0.0014907 -0.0122468 0.00686969 -0.240219 0.00125 108
1 0.29087 0.151514 0.00130305 -0.0121155 0.000541895 -0.282971 0.00125 109
1 0.232406 0.384977 0.00147165 0.00686918 -0.007666 -0.0952851 0.00125 110
1 0.38192 0.212488 0.00136977 0.0453078 0.0148853 0.154711 0.00125 111
1 0.219771 0.223272 0.00142044 -0.0144147 0.000557581 0.146821 0.00125 112
1 0.319884 0.300726 0.00141635 -0.00594885 0.00158212 -0.238785 0.00125 113
1 0.194656 0.0722 0.00248393 -0.0123347 -0.0377886 -0.0439 0.00125 114
1 0.247845 0.118937 0.00123568 -0.0140643 -0.022778 0.257963 0.00125 115
1 0.250435 0.0900314 0.00185023 -0.00154347 -0.00653302 -0.0427978 0.00125 116
1 0.167315 0.378003 0.00122893 -0.0114065 0.0120919 -0.0227281 0.00125 117
1 0.34393 0.099197 0.00127093 -0.00844772 -0.0187643 0.240605 0.00125 118
1 0.00281524 0.322296 0.00139473 -0.002177 -0.0278049 0.176967 0.00125 119
1 0.0579775 0.046963 0.00168366 0.00880943 -0.0068857 0.0664386 0.00125 120
1 0.310681 0.295997 0.00130191 -0.0132109 -0.0169889 -0.221858 0.00125 121
1 0.136278 0.256013 0.00134895 0.004222 0.00540261 0.161919 0.00125 122
1 0.453569 0.372722 0.00212339 0.00311528 0.00420107 -0.0576423 0.00125 123
1 0.38321 0.148883 0.0013438 -0.0462677 -0.00764337 -0.231849 0.00125 124
1 0.341529 0.431013 0.00217403 -0.00667909 -0.00981143 -0.158645 0.00125 125
1 0.0574096 0.336707 0.0016166 0.0043925 0.00329314 -0.228375 0.00125 126
1 0.0932205 0.406812 0.00192847 0.0136826 0.0128763 -0.189847 0.00125 127
1 0.227582 0.236781 0.0012508 -0.00889059 0.011638 0.167926 0.00125 128
1 0.116829 0.208241 0.00193033 -0.0188595 0.0524579 -0.0605502 0.00125 129
1 0.0646409 0.360817 0.00133334 -0.016653 -0.00826435 0.164682 0.00125 130
1 0.173503 0.387218 0.00133856 0.00888972 0.00974099 0.190348 0.00125 131
1 0.255569 0.319062 0.00131138 -0.0241516 -0.0122647 0.269711 0.00125 132
1 0.356502 0.129351 0.0016016 -0.000292298 -0.0107662 0.0487588 0.00125 133
1 0.10557 0.197303 0.00124655 0.0174164 0.0111909 -0.300116 0.00125 134
1 0.162382 0.141976 0.00145733 -0.00469298 -0.0135962 -0.301269 0.00125 135
1 0.341755 0.382931 0.00127435 0.0166196 0.006809 -0.284028 0.00125 136
1 0.208353 0.365255 0.00125549 -0.0254173 -0.0110403 0.0549565 0.00125 137
1 0.0985907 0.306113 0.00164259 -0.00325687 0.00145859 0.107626 0.00125 138
1 0.370957 0.370206 0.00183851 -0.000173582 0.0063357 -0.212978 0.00125 139
1 0.426147 0.295165 0.00139527 0.0183807 -0.00518528 -0.30827 0.00125 140
1 0.0409182 0.020802 0.00136336 -0.0114668 0.0019084 0.224541 0.00125 141
1 0.378145 0.0761917 0.00150295 0.0037979 0.00340571 -0.193162 0.00125 142
1 0.113519 0.135583 0.00132358 -0.000939768 0.00891165 0.174345 0.00125 143
1 0.180429 0.229996 0.00165833 -0.000282488 -0.0178467 -0.0864566 0.00125 144
1 0.220534 0.320593 0.00139892 -0.0107788 0.0294299 0.125847 0.00125 145
1 0.406822 0.360505 0.00153367 -0.0233651 0.00543615 0.204066 0.00125 146
1 0.40305 0.28472 0.00180873 0.0123082 -0.0159422 -0.0868117 0.00125 147
1 0.14356 0.275987 0.00123809 0.00714031 -0.0132572 0.171759 0.00125 148
1 0.380944 0.21714 0.00131272 -0.00367896 0.00983807 -0.226899 0.00125 149
1 0.312537 0.422426 0.00131027 -0.0235345 0.0134258 0.204901 0.00125 150
1 0.0620282 0.152154 0.00142693 -0.0178372 -0.00223098 -0.0706092 0.00125 151
1 0.315528 0.333205 0.00137502 -0.00655731 0.00496286 -0.197594 0.00125 152
1 0.23966 0.0193668 0.0015081 -0.00504892 -0.00686813 -0.238144 0.00125 153
1 0.427623 0.0492588 0.00139831 0.00367573 -0.0356705 -0.237234 0.00125 154
1 0.408724 0.311645 0.00177642 0.00632214 0.00818003 0.104001 0.00125 155
1 0.218997 0.281115 0.00181812 -0.00404847 -0.00732838 0.127418 0.00125 156
1 0.246641 0.0463551 0.00137816 -0.0453905 0.0221247 0.188625 0.00125 157
1 0.427641 0.44531 0.00144427 -0.0204124 -0.0141306 -0.237087 0.00125 158
1 0.155995 0.317999 0.00136665 0.0172625 0.0212471 0.160344 0.00125 159
1 0.3808 0.0864722 0.0012578 -0.0261452 -0.00274539 0.198569 0.00125 160
1 0.259005 0.165165 0.00160428 -0.00442931 0.0267435 0.0927294 0.00125 161
1 0.234141 0.309894 0.00176798 0.0245176 0.014588 -0.173263 0.00125 162
1 0.197197 0.111044 0.00166707 -0.00089464 0.0135066 -0.229001 0.00125 163
1 0.397817 0.11189 0.00127741 -0.0292687 0.0292888 -0.213478 0.00125 164
1 0.400892 0.0539707 0.00126847 0.0258076 0.00427618 0.189496 0.00125 165
1 0.0999826 0.43529 0.00129263 -0.000130398 0.00888768 -0.23438 0.00125 166
1 0.327604 0.0787384 0.00133898 0.0183272 -0.0129733 -0.237761 0.00125 167
1 0.297429 0.279681 0.00140449 -0.0148073 -0.00886781 0.148071 0.00125 168
1 0.00425531 0.127475 0.00127806 0.00750082 0.0266332 -0.272014 0.00125 169
1 0.408923 0.327414 0.00197143 -0.00694589 0.00860053 -0.0661073 0.00125 170
1 0.158818 0.100998 0.00137853 0.0304033 0.0160422 0.219734 0.00125 171
1 0.0616463 0.0153298 0.0015791 -0.013246 -0.0157411 -0.18324 0.00125 172
1 0.372084 0.0793833 0.0015471 0.0105159 -0.00205734 0.0657243 0.00125 173
1 0.0300427 0.434154 0.00137847 0.00152428 0.014317 0.224331 0.00125 174
1 0.153944 0.211922 0.00134403 0.00903055 0.0075054 -0.236777 0.00125 175
1 0.261739 0.10397 0.00181275 0.0281888 -0.00275958 -0.0783872 0.00125 176
1 0.105254 0.226936 0.00157564 -0.0259902 0.00328461 -0.252236 0.00125 177
1 0.11259 0.384888 0.00132249 -0.00571063 -0.0102004 -0.235244 0.00125 178
1 0.390888 0.310941 0.00141843 0.00756082 0.00980984 0.176913 0.00125 179
1 0.0411379 0.0484504 0.0013144 0.0126104 -0.0395631 -0.237069 0.00125 180
1 0.0887609 0.346033 0.00154865 -0.00440081 0.00184716 -0.104288 0.00125 181
1 0.295339 0.326084 0.00159914 0.0252101 0.00537542 -0.234244 0.00125 182
1 0.33861 0.0496558 0.00145531 0.0173614 0.0181831 0.208912 0.00125 183
1 0.163126 0.170828 0.00141712 0.0149177 -0.00517127 -0.102813 0.00125 184
1 0.430518 0.444324 0.00156782 -0.00715602 0.0306972 0.125647 0.00125 185
1 0.22129 0.340919 0.00131648 0.0163048 0.0232808 0.197053 0.00125 186
1 0.0942008 0.317315 0.00187364 -0.00893132 -0.0223809 -0.204868 0.00125 187
1 0.0537236 0.102098 0.00138815 0.0165583 -0.00479305 0.180645 0.00125 188
1 0.103144 0.334163 0.0019094 0.0305118 -0.00623556 -0.199104 0.00125 189
1 0.181511 0.119754 0.00171117 -0.0057836 -0.00318335 0.181134 0.00125 190
1 0.0235914 0.272794 0.00126577 0.019885 -0.0254865 -0.294237 0.00125 191
1 0.112543 0.122335 0.00160716 0.00795344 -0.0196595 -0.234132 0.00125 192
1 0.365181 0.0291039 0.00130248 0.0142622 -0.00813196 -0.238232 0.00125 193
1 0.0902873 0.379852 0.0016874 0.00908621 0.00567088 -0.227782 0.00125 194
1 0.0771097 0.0123651 0.00145803 0.000453887 -0.0196312 0.219921 0.00125 195
1 0.214359 0.357823 0.00128165 0.00511914 0.00208929 0.205821 0.00125 196
1 0.0270745 0.177125 0.00192686 0.00944478 0.00543634 -0.211332 0.00125 197
1 0.384358 0.411819 0.00137879 0.0101476 0.0226207 -0.227329 0.00125 198
1 0.301499 0.380516 0.00149116 -0.0151533 0.0319641 0.168751 0.00125 199
1 0.328326 0.255967 0.00124337 0.0022267 -0.0109127 -0.218922 0.00125 200
1 0.301552 0.0485449 0.00176306 0.00239027 0.00498191 -0.0737419 0.00125 201
1 0.365924 0.169107 0.00122847 -0.00161203 0.00595305 -0.116265 0.00125 202
1 0.168123 0.210204 0.00196052 0.0225589 0.00132654 -0.0805175 0.00125 203
1 0.42634 0.266452 0.00136837 -0.00607694 -0.000412131 -0.307063 0.00125 204
1 0.449561 0.0277324 0.00148511 -0.000570422 0.0105479 -0.237733 0.00125 205
1 0.452151 0.337016 0.00163779 -0.00766557 -0.000725097 0.0916957 0.00125 206
1 0.276995 0.038042 0.00169175 -0.00760618 -0.00186967 -0.0826191 0.00125 207
1 0.22501 0.185324 0.00144757 0.0104315 0.0109689 0.104742 0.00125 208
1 0.421505 0.226114 0.00173104 0.0109316 -0.00303881 0.104435 0.00125 209
1 0.0612549 0.302336 0.00141854 0.0118443 0.0152784 -0.239741 0.00125 210
1 0.427284 0.410939 0.00237157 0.0105506 -0.00604097 -0.105032 0.00125 211
1 0.271828 0.136011 0.00124853 0.0107685 -0.0266817 0.272316 0.00125 212
1 0.415816 0.220162 0.00126543 -0.0185151 -0.00184008 -0.283483 0.00125 213
1 0.424721 0.261421 0.00219436 0.0142525 -0.0116488 -0.153584 0.00125 214
1 0.136814 0.0808972 0.00126699 0.0406579 0.00207075 -0.230854 0.00125 215
1 0.420839 0.0399773 0.00130877 -0.0047677 0.0121878 -0.310792 0.00125 216
1 0.256737 0.393332 0.00123047 0.00879433 -0.00518721 0.0592583 0.00125 217
1 0.241867 0.354737 0.00195564 0.0151775 -0.0231519 -0.068825 0.00125 218
1 0.0768309 0.432653 0.001965 0.00932466 0.00585759 -0.196274 0.00125 219
1 0.449011 0.331114 0.00155998 0.0125738 0.017159 -0.179701 0.00125 220
1 0.2262 0.0711645 0.00188851 0.017933 -0.0289397 -0.0108984 0.00125 221
1 0.331279 0.328387 0.0015159 0.00824375 -0.000708986 -0.245216 0.00125 222
1 0.113748 0.186749 0.00136698 0.00701244 0.00738585 -0.237972 0.00125 223
1 0.0368409 0.03608 0.00123539 -0.00750306 -0.0106557 0.148942 0.00125 224
1 0.375045 0.353201 0.00123116 0.00781922 -0.00966744 0.089082 0.00125 225
1 0.396153 0.0844001 0.00147074 -0.0136453 0.00302177 -0.237447 0.00125 226
1 0.383191 0.1926 0.00166118 0.00269862 0.00376425 -0.0873898 0.00125 227
1 0.44082 0.44869 0.00142998 0.00546978 -0.00295281 0.123775 0.00125 228
1 0.245395 0.225209 0.00164554 -0.0160424 0.000808351 -0.0914846 0.00125 229
1 0.229369 0.105254 0.00157874 0.00260116 0.0139061 -0.172039 0.00125 230
1 0.201278 0.435491 0.00140458 -0.0135959 -0.0184714 0.149297 0.00125 231
1 0.438001 0.00566071 0.00212519 0.00758145 -0.0178533 -0.0569129 0.00125 232
1 0.100468 0.190231 0.00154143 0.000240795 0.00295295 -0.189928 0.00125 233
1 0.428963 0.0667978 0.00216495 -0.017196 -0.00226437 -0.160699 0.00125 234
1 0.0205883 0.0675682 0.00126935 -0.0199993 0.0116084 0.188237 0.00125 235
1 0.179146 0.199015 0.00131196 0.00895654 -0.00176559 0.180789 0.00125 236
1 0.258924 0.0761767 0.00179568 0.00861691 -0.0119124 -0.198688 0.00125 237
1 0.352488 0.235781 0.00143892 -0.0119419 0.0151033 0.242182 0.00125 238
1 0.0131656 0.343321 0.00147763 -0.00658687 0.00653884 0.123775 0.00125 239
1 0.411434 0.415102 0.00140226 0.00468224 0.00305788 0.148688 0.00125 240
1 0.422708 0.397606 0.0012879 -0.00205957 0.0109318 0.184912 0.00125 241
1 0.0891599 0.0129113 0.00170448 -0.00255452 -0.025368 -0.0836785 0.00125 242
1 0.231489 0.341324 0.00167006 0.0197027 -0.00218656 -0.270367 0.00125 243
1 0.0194479 0.077918 0.00142073 -0.00951962 0.00710781 -0.230599 0.00125 244
1 0.411259 0.258572 0.00178101 0.00196772 0.00974339 0.156858 0.00125 245
1 0.315441 0.174628 0.00237868 0.00558926 0.00795483 -0.0413272 0.00125 246
1 0.233958 0.455057 0.00175127 0.00071965 -0.000834332 0.169687 0.00125 247
1 0.335062 0.301026 0.00139907 0.0265223 0.00385354 -0.227564 0.00125 248
1 0.395829 0.041462 0.00152515 0.0117049 0.0126287 0.0917616 0.00125 249
1 0.00361774 0.335444 0.0017644 -0.00463865 -0.0180075 0.151932 0.00125 250
1 0.155853 0.160972 0.00159763 0.00499078 0.0112841 -0.177819 0.00125 251
1 0.265851 0.419911 0.00124769 -0.0067475 -0.0225007 -0.313188 0.00125 252
1 0.346318 0.288067 0.00138606 0.00129823 -0.0256317 0.226311 0.00125 253
1 0.0905142 0.3481 0.00166913 0.00466728 -0.00647407 -0.0870616 0.00125 254
1 0.056536 0.25 0.00159076 -0.00163392 0.0109629 0.0830772 0.00125 255
1 0.410279 0.377674 0.0014655 -0.00854089 0.0109449 0.213257 0.00125 256
1 0.322396 0.223478 0.00187646 0.0082996 0.00639066 -0.198325 0.00125 257
1 0.0496632 0.376996 0.00129815 0.00740333 0.00547835 -0.224582 0.00125 258
1 0.417787 0.120793 0.00238562 0.00327808 0.0049617 0.0284637 0.00125 259
1 0.156042 0.344074 0.00225156 0.00995571 -0.0227213 -0.050043 0.00125 260
1 0.0549196 0.0662907 0.00145803 -0.0242883 0.0068369 -0.226399 0.00125 261
1 0.0138241 0.095355 0.00126343 0.0124035 0.00810835 0.0686111 0.00125 262
1 0.351937 0.318976 0.00210062 -0.0347422 0.008084 0.00723811 0.00125 263
1 0.446705 0.0775318 0.00135087 -0.00369972 0.00380365 -0.0780737 0.00125 264
1 0.123474 0.40633 0.00136347 0.0104611 0.0216895 0.183079 0.00125 265
1 0.291703 0.402642 0.00123236 0.00405314 -0.00157091 -0.13731 0.00125 266
1 0.0493916 0.30755 0.00138786 0.0196443 -0.00232741 0.0917003 0.00125 267
1 0.0746736 0.179371 0.00154886 -0.0100515 0.0260585 0.112993 0.00125 268
1 0.429641 0.452249 0.0013378 0.0227104 0.0442283 -0.205514 0.00125 269
1 0.366782 0.379883 0.00146096 0.00296574 -0.0104298 -0.238889 0.00125 270
1 0.351898 0.218362 0.00132283 0.000304744 -0.00498123 0.229633 0.00125 271
1 0.219674 0.0646178 0.0014411 -0.00672569 0.010543 -0.147788 0.00125 272
1 0.12729 0.0403105 0.00136077 -0.00156867 -0.0152678 0.159595 0.00125 273
1 0.394876 0.090392 0.00161628 -0.0082849 0.0122301 -0.2298 0.00125 274
1 0.176511 0.424629 0.00126733 -0.00811083 -0.00495749 -0.116313 0.00125 275
1 0.326569 0.374485 0.00133711 -0.00313421 -0.00515142 -0.272601 0.00125 276
1 0.367156 0.385224 0.00147611 0.0221791 0.0175378 -0.239392 0.00125 277
1 0.376147 0.140688 0.00157135 -0.01772 -0.0131936 -0.229031 0.00125 278
1 0.383783 0.228985 0.0017496 -0.000653792 0.0111266 -0.0603958 0.00125 279
1 0.113847 0.0449834 0.00153396 -0.00106129 0.000395225 0.0653362 0.00125 280
1 0.0788179 0.123921 0.00203671 0.00596676 -0.000748428 -0.0634743 0.00125 281
1 0.0944106 0.0677697 0.00148152 0.0175659 -0.023125 -0.239218 0.00125 282
1 0.0721793 0.393342 0.0016151 0.0703513 0.000607413 -0.0445046 0.00125 283
1 0.354836 0.121011 0.00133901 0.0176721 0.0030205 0.170708 0.00125 284
1 0.230135 0.409305 0.00127138 -0.00373237 -0.00468297 -0.233508 0.00125 285
1 0.354487 0.115414 0.00157859 0.0204387 -0.00625893 -0.229399 0.00125 286
1 0.143784 0.150442 0.00174469 0.0125755 -0.0117844 0.169966 0.00125 287
1 0.0372098 0.45331 0.00172423 -0.0173528 0.0465806 -0.0814436 0.00125 288
1 0.405068 0.179109 0.00171502 0.0156644 0.0176329 0.102771 0.00125 289
1 0.0824861 0.0809012 0.00248365 -0.00526957 -0.00340763 -0.0505735 0.00125 290
1 0.395075 0.161009 0.00126151 -0.00677931 -0.00714221 -0.225447 0.00125 291
1 0.420562 0.0867606 0.00131581 -0.00309885 -0.00990451 0.175982 0.00125 292
1 0.0720461 0.27566 0.00132922 -0.00519402 0.0106799 0.229691 0.00125 293
1 0.293218 0.0965037 0.00244688 0.0125239 0.00379107 -0.0785535 0.00125 294
1 0.0951122 0.383718 0.00138098 0.0574858 0.0200882 0.117517 0.00125 295
1 0.34801 0.423219 0.00144022 0.00215578 -0.00437378 0.207578 0.00125 296
1 0.0268551 0.0216477 0.00166714 -0.0232615 0.00761434 -0.229426 0.00125 297
1 0.115667 0.351135 0.00209019 0.0063051 -0.00681982 -0.0538814 0.00125 298
1 0.00308737 0.206573 0.00225217 -0.0247164 0.0108984 -0.042774 0.00125 299
1 0.0239845 0.0792116 0.00196836 0.0235888 0.00978298 -0.0690742 0.00125 300
1 0.346633 0.156504 0.00217386 0.00515769 -0.0198242 -0.0541088 0.00125 301
1 0.105459 0.243035 0.0014976 0.00215784 -0.0115079 -0.0632866 0.00125 302
1 0.22863 0.321333 0.00137116 -0.018163 0.032122 -0.247916 0.00125 303
1 0.19665 0.107152 0.00131258 -0.0106731 0.00468364 -0.236098 0.00125 304
1 0.174988 0.0504993 0.00135441 0.0382326 -0.0325641 -0.114509 0.00125 305
1 0.170033 0.383335 0.00122812 -0.00518677 0.00375605 0.100168 0.00125 306
1 0.270424 0.184619 0.0012381 -0.0135 -0.0140781 0.138379 0.00125 307
1 0.383997 0.263946 0.00122448 0.00347478 -0.00546608 0.0535476 0.00125 308
1 0.0547167 0.294226 0.00155261 -0.0211656 -0.0097683 -0.19943 0.00125 309
1 0.228812 0.142174 0.00145459 -0.0246973 0.010907 -0.147238 0.00125 310
1 0.334786 0.0207441 0.00142208 -0.0264669 0.0109944 0.218501 0.00125 311
1 0.0296139 0.307277 0.00163235 0.00961838 -0.00747746 -0.231461 0.00125 312
1 0.173717 0.337466 0.00176032 0.0483575 0.0461065 -0.235771 0.00125 313
1 0.27193 0.0827113 0.00129714 -0.000685612 -0.00102663 0.182981 0.00125 314
1 0.196842 0.380238 0.00128068 -0.0107943 0.0141754 0.190425 0.00125 315
1 0.169401 0.124619 0.00139561 0.000862608 0.000915991 -0.302137 0.00125 316
1 0.425443 0.161229 0.00131721 0.0190973 0.0198205 0.263374 0.00125 317
1 0.22547 0.251244 0.00128401 0.00295417 0.0274157 0.1877 0.00125 318
1 0.250289 0.00794687 0.00130414 -0.0150804 -0.00369979 0.207594 0.00125 319
1 0.374488 0.0462918 0.00144057 -0.0122018 0.0184811 0.218947 0.00125 320
1 0.335079 0.0503701 0.0014413 0.00120322 -0.0250706 -0.239425 0.00125 321
1 0.335711 0.0731127 0.001337 -0.0330141 -0.0189457 0.169351 0.00125 322
1 0.219519 0.0603084 0.00138121 -0.0012322 -0.00671112 0.17914 0.00125 323
1 0.0167447 0.119054 0.00160255 -0.0220324 -0.0204794 -0.232783 0.00125 324
1 0.45234 0.0609175 0.00129329 -0.0111759 0.0127342 0.168622 0.00125 325
1 0.225747 0.0452471 0.0014055 -0.00544572 -0.00207627 0.171941 0.00125 326
1 0.397118 0.237425 0.00123253 -0.013413 0.0170518 0.137116 0.00125 327
1 0.190385 0.403173 0.00180054 0.00259538 -0.0308632 -0.0217427 0.00125 328
1 0.417716 0.211694 0.00160425 0.00157058 0.00611909 0.0941241 0.00125 329
1 0.41251 0.0412004 0.0012588 -0.00644829 0.00215652 0.222691 0.00125 330
1 0.430432 0.344833 0.00246431 0.0166365 -0.0180832 -0.0670632 0.00125 331
1 0.2931 0.373701 0.00192156 -0.0145368 -0.030298 -0.0443383 0.00125 332
1 0.181156 0.449657 0.00243761 -0.00641917 -0.013523 -0.0830825 0.00125 333
1 0.00460195 0.298787 0.00129867 0.00413845 0.00234186 0.18479 0.00125 334
1 0.143239 0.185998 0.00146964 -0.00288918 0.000296579 -0.237744 0.00125 335
1 0.33524 0.238503 0.0016273 -0.0183255 -0.000687067 -0.0943016 0.00125 336
1 0.0586249 0.272938 0.00128775 0.0117238 0.00141941 0.210645 0.00125 337
1 0.399956 0.335411 0.00177688 0.00349165 -0.0068496 -0.0788334 0.00125 338
1 0.320892 0.227837 0.00150064 0.0018063 0.00456722 -0.101998 0.00125 339
1 0.0555141 0.31971 0.00186387 0.0115192 0.00601073 -0.0478723 0.00125 340
1 0.179881 0.430992 0.0014528 0.00586232 0.017446 -0.230402 0.00125 341
1 0.339007 0.214485 0.00178975 0.00840378 -0.0110151 0.0924339 0.00125 342
1 0.449686 0.261497 0.0017077 0.047407 -0.0241738 -0.250967 0.00125 343
1 0.120339 0.367907 0.00128117 -0.00441081 -0.00196047 -0.00811152 0.00125 344
1 0.0178794 0.0898499 0.00158835 -0.00657359 -0.0102621 -0.229286 0.00125 345
1 0.209639 0.228291 0.0013975 0.0164255 -0.0135455 0.174006 0.00125 346
1 0.174733 0.0912603 0.00132935 -0.00803923 0.00282721 0.172908 0.00125 347
1 0.449417 0.204721 0.0024572 -0.00238449 -0.000354027 -0.0560815 0.00125 348
1 0.256444 0.0416423 0.0024307 -0.00469417 0.0110648 0.0250955 0.00125 349
1 0.322681 0.20942 0.00196864 0.013878 -0.00969344 -0.0683746 0.00125 350
1 0.178002 0.140107 0.00127996 0.0243968 0.00096111 -0.219428 0.00125 351
1 0.34387 0.186065 0.00226936 0.00650747 -0.00253588 -0.0482586 0.00125 352
1 0.420988 0.0795583 0.0013055 -0.0227554 0.00297889 -0.115037 0.00125 353
1 0.312057 0.411209 0.00211839 -0.00915876 -0.00586359 -0.056395 0.00125 354
1 0.139836 0.450495 0.00130527 -0.00659736 -0.00116348 0.199005 0.00125 355
1 0.0428859 0.246973 0.00162221 0.0045088 -0.0113192 0.0824367 0.00125 356
1 0.380396 0.193951 0.00130145 0.00238717 -0.00562597 0.186191 0.00125 357
1 0.0683045 0.352502 0.00133283 0.0322479 0.00985577 -0.244429 0.00125 358
1 0.194297 0.0969495 0.00156834 -0.0115089 -0.0101332 0.230897 0.00125 359
1 0.411081 0.139275 0.00146846 -0.00367133 -0.00171271 -0.198084 0.00125 360
1 0.0948174 0.189619 0.00157552 0.0147042 -0.000655203 -0.235259 0.00125 361
1 0.107591 0.00188866 0.00175739 -0.0149741 0.000247934 0.138886 0.00125 362
1 0.331427 0.0762751 0.00194075 0.00144159 -0.00134388 -0.00884172 0.00125 363
1 0.31886 0.013576 0.00151303 -0.0331079 -0.00489435 0.111093 0.00125 364
1 0.291387 0.114243 0.00171111 -0.0207377 0.0318166 -0.0845814 0.00125 365
1 0.364288 0.249624 0.00159708 0.00923378 0.0109303 -0.284807 0.00125 366
1 0.451559 0.0698738 0.00124734 0.0211142 0.022415 -0.276707 0.00125 367
1 0.251119 0.309929 0.00146889 -0.0156792 -0.00763441 -0.19539 0.00125 368
1 0.386644 0.283218 0.00157217 0.00750622 0.00609088 0.0953814 0.00125 369
1 0.191484 0.135971 0.00132173 0.00712694 0.00127234 -0.224514 0.00125 370
1 0.28472 0.0585576 0.00141076 0.0248292 -0.0103837 0.140115 0.00125 371
1 0.0920763 0.118064 0.00134523 -0.00658462 0.0130541 -0.22455 0.00125 372
1 0.191758 0.193056 0.00153917 0.00632925 -0.0493696 -0.222444 0.00125 373
1 0.24986 0.287008 0.00128658 0.00141238 -0.011534 -0.23342 0.00125 374
1 0.00708711 0.15314 0.00133398 -0.00685704 0.000348956 -0.194643 0.00125 375
1 0.224256 0.0169112 0.00144986 -0.00235056 0.000691174 -0.232745 0.00125 376
1 0.109953 0.231381 0.00122742 0.0041936 0.0204441 -0.0941872 0.00125 377
1 0.0972955 0.386214 0.00171157 -0.00885848 0.0135337 -0.0901144 0.00125 378
1 0.129127 0.0059704 0.00153913 -0.00695956 -0.0193854 -0.105773 0.00125 379
1 0.0353377 0.0490359 0.00125888 0.00255581 -0.00745426 -0.0290879 0.00125 380
1 0.418804 0.433097 0.00178772 0.0111783 0.0026803 -0.0448974 0.00125 381
1 0.226709 0.360536 0.00126835 -0.0165565 0.00286048 -0.231594 0.00125 382
1 0.0584409 0.166663 0.00189841 0.00905151 0.00104759 -0.0330281 0.00125 383
1 0.389521 0.204175 0.00181582 -0.0206178 -0.0194997 -0.220272 0.00125 384
1 0.079252 0.300747 0.0012306 0.00483737 0.00399828 0.0284926 0.00125 385
1 0.428582 0.427171 0.001468 0.00315001 0.0049958 -0.238309 0.00125 386
1 0.148025 0.329224 0.00153623 0.000434579 -0.00560835 0.104717 0.00125 387
1 0.374244 0.130643 0.00131038 0.00961177 -0.00899993 -0.230583 0.00125 388
1 0.439351 0.411514 0.00141735 -0.00971989 -0.017696 0.238189 0.00125 389
1 0.195528 0.273084 0.00141129 0.027687 0.0118511 -0.225435 0.00125 390
1 0.22071 0.379509 0.00135887 0.0256708 0.0201 0.162322 0.00125 391
1 0.161763 0.0990777 0.00147699 0.0011206 0.00725364 -0.239126 0.00125 392
1 0.296372 0.0775393 0.00133345 -0.025143 -0.00608204 0.226978 0.00125 393
1 0.422045 0.261434 0.00132462 0.0319159 -0.00779762 0.173461 0.00125 394
1 0.262906 0.269948 0.00137957 0.0234398 -0.00939287 0.223293 0.00125 395
1 0.111832 0.0531503 0.00164802 0.0167218 -0.0250095 0.0986854 0.00125 396
1 0.299693 0.323539 0.001547 -0.000944547 -0.000696726 -0.260298 0.00125 397
1 0.0929211 0.448949 0.00146189 0.0265885 0.0065771 -0.298592 0.00125 398
1 0.391835 0.205149 0.00149745 0.0119025 -0.0173105 -0.207786 0.00125 399