ITEM: TIMESTEP
1000000
ITEM: NUMBER OF ATOMS
10000
ITEM: BOX BOUNDS pp pp ff
0.0000000000000000e+00 3.9147628500000003e-01
0.0000000000000000e+00 3.9147628500000003e-01
-1.2500000000000001e-02 1.2500000000000001e-02
ITEM: ATOMS type x y z vx vy vz radius id
1 0.247485 0.217872 0.00145172 -0.0432571 0.0107882 -0.173493 0.00125 1
1 0.369929 0.371274 0.00127544 -0.00114444 0.0201364 -0.207921 0.00125 2
1 0.343925 0.168613 0.00133901 0.0114048 0.00200824 -0.233269 0.00125 3
1 0.374086 0.0506693 0.00166811 0.0146988 -0.0156202 0.0965826 0.00125 4
1 0.199532 0.202563 0.00237594 0.0158063 -0.0243203 -0.103472 0.00125 5
1 0.0432431 0.182386 0.00170487 0.00975091 0.000932422 0.158645 0.00125 6
1 0.0362024 0.208196 0.00129346 -0.0183455 -0.0176032 -0.228218 0.00125 7
1 0.123759 0.178065 0.00227629 0.00741845 0.00828061 -0.134177 0.00125 8
1 0.143395 0.241067 0.00177133 0.0238049 0.0317499 -0.0611766 0.00125 9
1 0.299713 0.264601 0.00134171 0.00563825 0.0153056 -0.239735 0.00125 10
1 0.156598 0.215664 0.00126482 0.00366619 0.0117913 0.195987 0.00125 11
1 0.139991 0.0468919 0.00225182 -0.0051085 -0.0179355 -0.142123 0.00125 12
1 0.167197 0.0995781 0.00156908 -0.0204972 -0.0152095 0.0943461 0.00125 13
1 0.146623 0.386503 0.00174476 0.00227194 -0.00245068 -0.0416895 0.00125 14
1 0.109746 0.231396 0.00146755 -0.00694203 0.00111996 0.129066 0.00125 15
1 0.325979 0.0526172 0.00129409 -0.00675715 0.0233318 -0.234897 0.00125 16
1 0.106809 0.301203 0.00190583 -0.00664454 -0.0132789 -0.068503 0.00125 17
1 0.246079 0.152026 0.00146799 -0.0142497 -0.000249423 -0.297423 0.00125 18
1 0.385196 0.15602 0.00123434 -0.0216466 -0.0123496 -0.117647 0.00125 19
1 0.360626 0.158875 0.00179175 -0.0141783 -0.0211199 -0.215446 0.00125 20
1 0.0527079 0.0802799 0.00127754 -0.0126838 -0.000832055 0.198585 0.00125 21
1 0.109765 0.151672 0.00129112 -0.00622292 0.018818 -0.232489 0.00125 22
1 0.00340869 0.0444324 0.00151028 0.00491422 0.00458767 -0.237484 0.00125 23
1 0.191966 0.133016 0.00155211 -0.0114473 -0.00324545 -0.174163 0.00125 24
1 0.0244906 0.115929 0.00149199 0.0632056 -0.00677529 0.0969516 0.00125 25
1 0.101979 0.00819367 0.00147455 -0.0155943 -0.012476 -0.23587 0.00125 26
1 0.0128927 0.202604 0.0012786 0.0149487 -0.00425171 -0.204332 0.00125 27
1 0.0613552 0.0516858 0.00171578 -2.50191e-05 -0.00819032 -0.196591 0.00125 28
1 0.072186 0.31352 0.00138954 -0.0367124 0.0610418 -0.246197 0.00125 29
1 0.141444 0.0910672 0.00145435 -0.00682916 -0.0160399 -0.195191 0.00125 30
1 0.225545 0.221868 0.00179154 0.0262305 -0.000845866 -0.170417 0.00125 31
1 0.17785 0.121641 0.00159026 -0.000958835 -0.00812718 0.0524144 0.00125 32
1 0.0542072 0.306689 0.00137758 0.0194672 0.0140341 -0.196504 0.00125 33
1 0.144608 0.204997 0.00156603 0.0109156 0.00189904 0.112143 0.00125 34
1 0.0403195 0.147897 0.00131332 0.0149404 0.00671632 -0.151733 0.00125 35
1 0.299192 0.0123446 0.00132572 -0.0126183 -0.0187179 -0.233273 0.00125 36
1 0.071155 0.289807 0.00192218 -0.00856454 0.0149646 -0.0720854 0.00125 37
1 0.133652 0.319915 0.00129731 0.00683362 -0.00152901 -0.234394 0.00125 38
1 0.349524 0.198081 0.00131598 0.0147231 -0.0211468 -0.239672 0.00125 39
1 0.272658 0.0455211 0.00144925 -0.00849452 -0.0155766 0.218694 0.00125 40
1 0.255731 0.213246 0.00190413 0.016727 0.00661544 -0.183035 0.00125 41
1 0.316917 0.155838 0.00137247 0.00727908 0.0144472 -0.228219 0.00125 42
1 0.308371 0.296358 0.00157538 -0.00624257 0.00512008 0.0941587 0.00125 43
1 0.223176 0.263437 0.0016399 -0.0185977 -0.00254543 -0.0918185 0.00125 44
1 0.108669 0.0343522 0.00151977 -0.0114549 0.00862255 -0.105152 0.00125 45
1 0.298969 0.0203865 0.00244092 -0.00628226 0.0143422 -0.0335228 0.00125 46
1 0.259725 0.289259 0.00128751 0.0525242 -0.000401207 -0.253346 0.00125 47
1 0.0854878 0.142964 0.0015234 -0.0178935 -0.0219099 -0.252486 0.00125 48
1 0.0868554 0.224558 0.00143992 -0.0083437 -0.0211747 0.135603 0.00125 49
1 0.263959 0.243613 0.00160918 0.0085354 -0.0294353 0.0926151 0.00125 50
1 0.209643 0.172801 0.00125402 -0.00134034 -0.0380517 -0.231754 0.00125 51
1 0.280312 0.30606 0.00221065 0.00559979 0.00134647 -0.149136 0.00125 52
1 0.133499 0.0288543 0.00153813 0.00148671 0.0111297 -0.194546 0.00125 53
1 0.335172 0.355782 0.00157982 0.0427701 -0.0234902 -0.0961447 0.00125 54
1 0.364872 0.156112 0.00131071 0.0150155 -0.0114844 0.18128 0.00125 55
1 0.0814159 0.305604 0.0015337 0.013583 0.00602681 0.0918437 0.00125 56
1 0.0327691 0.311719 0.00143282 -0.0176463 -0.0321701 0.138338 0.00125 57
1 0.0291595 0.341816 0.00136108 0.0461464 -0.108305 0.0423498 0.00125 58
1 0.0875545 0.0684562 0.00125368 -0.000243013 0.00914275 0.202629 0.00125 59
1 0.341744 0.109055 0.00161563 -0.00518602 0.00267719 -0.169905 0.00125 60
1 0.307393 0.329706 0.00128883 -0.0105934 0.00950653 -0.242355 0.00125 61
1 0.156635 0.285438 0.00176248 -0.00831451 0.0188135 -0.212972 0.00125 62
1 0.00888779 0.278798 0.00156052 -0.00273576 -0.00644424 -0.257254 0.00125 63
1 0.0451872 0.346735 0.00157048 -0.0130693 0.00366671 -0.186985 0.00125 64
1 0.38497 0.0342361 0.00142437 -0.00630488 -0.00724017 -0.200503 0.00125 65
1 0.105171 0.214966 0.00153359 -0.0121472 -0.00364854 0.104738 0.00125 66
1 0.306095 0.308651 0.00193114 0.0398156 0.00908476 -0.19136 0.00125 67
1 0.067039 0.055554 0.0012492 -0.0499194 0.0108472 0.203556 0.00125 68
1 0.269251 0.309073 0.00126936 0.00831626 -0.0109873 0.171276 0.00125 69
1 0.281952 0.283299 0.00125118 0.00740813 0.00313784 0.196704 0.00125 70
1 0.256764 0.246667 0.0013134 -0.00143516 -0.00680493 -0.149055 0.00125 71
1 0.143368 0.288034 0.00153396 -0.00675516 -0.00997609 -0.179364 0.00125 72
1 0.214141 0.115959 0.00148263 0.0243496 -0.0263223 0.0924093 0.00125 73
1 0.17434 0.26154 0.00125627 0.0289788 0.069035 -0.0682948 0.00125 74
1 0.301079 0.235434 0.00128859 0.0261095 0.0646706 -0.211683 0.00125 75
1 0.133819 0.256385 0.00142155 0.0236022 -0.0100969 0.222454 0.00125 76
1 0.0738487 0.261979 0.0013869 -0.0143859 0.0304994 -0.23732 0.00125 77
1 0.283985 0.047344 0.00140267 0.0324312 -0.00688196 -0.195319 0.00125 78
1 0.26134 0.318377 0.0016288 0.0177881 -0.0223607 -0.169496 0.00125 79
1 0.375734 0.33227 0.00235925 0.00696551 -0.00773584 -0.060602 0.00125 80
1 0.0637022 0.0535255 0.00122844 0.00403739 -0.0016464 -0.157041 0.00125 81
1 0.365649 0.319065 0.00215811 -0.0158588 0.0092687 -0.060724 0.00125 82
1 0.31812 0.362375 0.00151904 -0.0132713 -0.00225716 -0.0761185 0.00125 83
1 0.113004 0.274449 0.00144639 -0.0125297 -0.0230713 0.212323 0.00125 84
1 0.0174071 0.390098 0.00132424 -0.000972287 -0.0050332 -0.216333 0.00125 85
1 0.260945 0.109134 0.00128385 0.0147776 0.0320925 0.197056 0.00125 86
1 0.143692 0.120568 0.00181239 -0.0189483 0.00876406 -0.0771965 0.00125 87
1 0.250723 0.0327219 0.00122882 -0.0169456 0.0187935 -0.19685 0.00125 88
1 0.166395 0.185886 0.00205055 -0.0108806 0.00287051 -0.0628285 0.00125 89
1 0.000139864 0.356789 0.00152141 -0.00842867 0.020226 -0.238307 0.00125 90
1 0.31422 0.214417 0.00150548 -0.00177065 0.0239478 0.217156 0.00125 91
1 0.367391 0.274951 0.00195401 -0.0470061 -0.0765294 -0.0390766 0.00125 92
1 0.183448 0.132816 0.00176313 0.0194262 -0.0121108 -0.220159 0.00125 93
1 0.247169 0.0101953 0.00196342 -0.0115879 0.00233597 -0.0128813 0.00125 94
1 0.280161 0.0910015 0.00193296 0.000357993 0.0170382 -0.200309 0.00125 95
1 0.183725 0.202846 0.00150215 0.00454293 0.0100358 -0.195366 0.00125 96
1 0.281234 0.037384 0.00135575 0.00210677 0.0260582 -0.252087 0.00125 97
1 0.150722 0.311364 0.00136439 -0.0236154 0.0162552 0.190922 0.00125 98
1 0.207704 0.120907 0.00130983 -0.0293072 -0.000375467 0.209899 0.00125 99
1 0.373625 0.320262 0.001569 -0.0218801 0.000250715 0.138311 0.00125 100
1 0.0840016 0.19904 0.00194229 -0.00250498 -0.00923468 -0.205781 0.00125 101
1 0.226294 0.214517 0.00155234 0.0137077 0.021618 -0.230561 0.00125 102
1 0.0160735 0.283593 0.00217383 -0.0493166 0.0125163 -0.0690274 0.00125 103
1 0.223035 0.0844939 0.00156061 -0.0146798 0.0216315 -0.180023 0.00125 104
1 0.179682 0.272284 0.00233218 0.0284824 0.012008 -0.0489373 0.00125 105
1 0.211602 0.0669778 0.00222097 -0.0054257 0.0166953 -0.155296 0.00125 106
1 0.0974848 0.01373 0.0016908 -0.0412118 0.0177192 -0.0963826 0.00125 107
1 0.343218 0.158765 0.00222541 -0.0837598 0.0397296 -0.159168 0.00125 108
1 0.0981139 0.384638 0.00182627 -0.000986469 0.00132172 -0.162664 0.00125 109
1 0.3318 0.143135 0.00138108 0.004123 -0.0426135 -0.291639 0.00125 110
1 0.267536 0.234424 0.00131059 0.00999661 0.0170676 -0.106189 0.00125 111
1 0.0577096 0.210822 0.00141834 -0.0106839 0.00104639 -0.239833 0.00125 112
1 0.23873 0.238389 0.00142148 -0.0173273 0.00990297 -0.199039 0.00125 113
1 0.00576974 0.17816 0.00149263 -0.0122058 -0.0193017 -0.0939446 0.00125 114
1 0.047687 0.0157167 0.00161543 -0.0563418 0.00375248 -0.114877 0.00125 115
1 0.308964 0.0499797 0.00135559 -0.0125511 0.0218904 -0.27876 0.00125 116
1 0.197905 0.123936 0.00123056 -0.0187519 0.00183222 0.00834494 0.00125 117
1 0.0737675 0.125547 0.00133234 0.00535319 0.00786541 0.156279 0.00125 118
1 0.23284 0.309854 0.00135221 -0.0220496 0.0278846 -0.188139 0.00125 119
1 0.329435 0.0880144 0.00149168 0.0143819 0.0134629 0.117243 0.00125 120
1 0.332478 0.0976731 0.00145515 -0.00726894 -0.0344719 0.130303 0.00125 121
1 0.350096 0.277804 0.00128799 0.000212356 -0.0030016 0.237288 0.00125 122
1 0.310226 0.359029 0.00155997 0.00377343 -0.0143976 0.0612359 0.00125 123
1 0.035122 0.153723 0.00129024 0.00710915 -0.0176469 0.180296 0.00125 124
1 0.0577284 0.246633 0.00131728 -0.0197595 -0.00579793 -0.0645957 0.00125 125
1 0.0301848 0.234523 0.00169102 -0.00815994 0.00442658 -0.0909571 0.00125 126
1 0.367974 0.0145638 0.00182251 0.0021769 -0.0401211 -0.217833 0.00125 127
1 0.267719 0.210201 0.00162352 -0.00701658 0.000282414 -0.0915907 0.00125 128
1 0.134593 0.208444 0.00230853 0.0213449 0.0199302 -0.0448935 0.00125 129
1 0.0434019 0.226522 0.00129323 -0.000652906 -0.102308 -0.26253 0.00125 130
1 0.205079 0.382818 0.00153116 -0.00309379 0.0163771 0.106361 0.00125 131
1 0.148198 0.208392 0.00198972 0.00929264 -0.0192152 -0.200139 0.00125 132
1 0.2024 0.26705 0.00236267 -0.017971 0.0134807 -0.0605123 0.00125 133
1 0.0840454 0.124208 0.00133994 -0.00323627 -0.0300342 0.17244 0.00125 134
1 0.154815 0.245144 0.00132484 0.018208 0.00882495 0.176793 0.00125 135
1 0.334594 0.192169 0.00133649 0.00748464 -0.0405932 -0.234652 0.00125 136
1 0.177955 0.184617 0.00177628 0.00828471 -0.0217963 -0.262119 0.00125 137
1 0.348607 0.044641 0.00130849 0.00757108 -0.0231585 0.159928 0.00125 138
1 0.334439 0.18434 0.00200133 0.00928389 0.00678814 -0.01951 0.00125 139
1 0.29679 0.231908 0.00141798 0.0201567 0.00208892 0.248761 0.00125 140
1 0.0559075 0.149715 0.0019233 -0.0188283 0.0418023 -0.0632712 0.00125 141
1 0.137613 0.321162 0.00146522 0.00247158 -0.00457083 -0.195776 0.00125 142
1 0.0103251 0.302023 0.00243827 0.00416712 0.0201433 -0.0739593 0.00125 143
1 0.171004 0.158628 0.00188779 0.00838158 -0.0835207 -0.212023 0.00125 144
1 0.272269 0.199796 0.00141888 0.0121184 0.00279358 0.148025 0.00125 145
1 0.179044 0.0223277 0.00212842 -0.0195974 -0.00708647 -0.167074 0.00125 146
1 0.114528 0.172046 0.00150743 -0.0257478 0.00426846 0.159629 0.00125 147
1 0.332688 0.00826312 0.0017787 0.00229164 -0.0305738 -0.0833528 0.00125 148
1 0.302576 0.0187673 0.00147122 -0.00448533 -0.0044403 -0.0847311 0.00125 149
1 0.20097 0.019107 0.00161647 0.0048179 0.0092019 -0.186887 0.00125 150
1 0.1352 0.00620868 0.00142182 0.000996692 -0.0222943 -0.240333 0.00125 151
1 0.134487 0.277231 0.00123774 0.00668816 0.00926868 0.134544 0.00125 152
1 0.0988804 0.374356 0.00133391 0.0086804 -0.0112089 0.190736 0.00125 153
1 0.313274 0.182698 0.00175006 -0.000784036 0.0110544 0.116238 0.00125 154
1 0.135119 0.263828 0.00244313 0.00610555 -0.00385197 -0.0727849 0.00125 155
1 0.0187175 0.0580802 0.00149898 -0.00510407 0.0127624 -0.077288 0.00125 156
1 0.213278 0.295241 0.00153778 0.0132929 -0.0279512 0.0925323 0.00125 157
1 0.16929 0.00112698 0.002167 -0.0104844 -0.00553493 -0.162417 0.00125 158
1 0.356503 0.0201785 0.00125833 0.038536 -0.00361718 -0.234859 0.00125 159
1 0.243697 0.0202414 0.00145782 -0.00497635 -0.0205804 0.220137 0.00125 160
1 0.292481 0.140746 0.00124924 0.0185376 -0.00507024 0.192589 0.00125 161
1 0.129777 0.171719 0.00133833 0.0222935 -0.0165821 0.162011 0.00125 162
1 0.205124 0.195612 0.00153325 -0.00906283 0.00937221 -0.0616161 0.00125 163
1 0.35811 0.0878304 0.00136498 0.0170152 0.0048223 0.145508 0.00125 164
1 0.0114813 0.0586672 0.00154998 0.00856464 -0.015543 0.137464 0.00125 165
1 0.111839 0.389697 0.0014525 -0.0176494 -0.0200732 -0.214806 0.00125 166
1 0.23246 0.198915 0.00136881 -0.00466127 -0.00777649 -0.230598 0.00125 167
1 0.230542 0.00283094 0.00137427 -0.0232677 0.00358179 -0.191681 0.00125 168
1 0.250579 0.150458 0.00159848 0.036845 0.0107146 -0.200545 0.00125 169
1 0.0952647 0.0268098 0.00175895 -0.00770423 -0.00073266 -0.153869 0.00125 170
1 0.00551436 0.293186 0.00185387 -0.000516928 0.00487253 -0.0316689 0.00125 171
1 0.26779 0.195809 0.00123131 0.00797881 -0.0113391 0.174847 0.00125 172
1 0.267924 0.352571 0.00209095 0.056955 0.0845133 0.0064273 0.00125 173
1 0.221361 0.38382 0.00209418 -0.0117322 -0.0162946 -0.0676157 0.00125 174
1 0.235285 0.297724 0.00144187 0.0110505 0.0153847 0.238347 0.00125 175
1 0.120399 0.255368 0.0022951 0.0188551 0.00219524 -0.0736886 0.00125 176
1 0.108589 0.172374 0.0014199 0.012064 0.00700417 0.142766 0.00125 177
1 0.191151 0.0174212 0.00137371 -0.0358225 -0.00144904 0.176309 0.00125 178
1 0.331724 0.373027 0.00133619 -0.00409805 0.00155917 -0.151082 0.00125 179
1 0.124594 0.18727 0.00150871 -0.015331 0.0101981 0.111616 0.00125 180
1 0.103529 0.30219 0.0015062 -0.0317079 0.00909134 -0.191242 0.00125 181
1 0.271418 0.103644 0.00137593 0.00699153 0.00937681 -0.228425 0.00125 182
1 0.336963 0.0439148 0.00171173 0.00168159 -0.0260818 -0.0604828 0.00125 183
1 0.063691 0.255048 0.00240219 0.0297451 -0.023107 -0.057354 0.00125 184
1 0.0446147 0.352926 0.00156938 0.0307295 -0.00383257 0.0940414 0.00125 185
1 0.216964 0.257836 0.00159827 0.0226452 0.0446705 -0.199835 0.00125 186
1 0.230053 0.307506 0.0014351 -0.00110567 0.00507269 0.211143 0.00125 187
1 0.24636 0.021865 0.00137107 -0.0165658 0.0121491 -0.191148 0.00125 188
1 0.311807 0.222983 0.00144049 0.00584708 -0.00101455 -0.230276 0.00125 189
1 0.189175 0.0435595 0.00159576 0.0122128 0.0112529 0.139497 0.00125 190
1 0.309595 0.106677 0.00239975 -0.0128733 0.0145989 -0.00308682 0.00125 191
1 0.161892 0.0338687 0.0014498 0.00232471 0.0147224 0.137132 0.00125 192
1 0.131674 0.371776 0.00141305 -0.0204419 -0.00675752 0.110817 0.00125 193
1 0.107755 0.16076 0.00231826 -0.00432413 -0.0109215 -0.152674 0.00125 194
1 0.305218 0.378896 0.00170961 0.0169775 0.0152108 0.0990809 0.00125 195
1 0.309248 0.301382 0.00148657 -0.00951898 -0.014833 0.118853 0.00125 196
1 0.0642545 0.145182 0.00154978 -0.00542765 -0.0291724 0.181413 0.00125 197
1 0.20885 0.0751164 0.00231686 0.00911617 0.019604 -0.0268084 0.00125 198
1 0.237184 0.126151 0.00144812 -0.00912764 0.00939122 -0.228236 0.00125 199
1 0.303552 0.264291 0.00138855 -0.0336071 -0.0118681 -0.235333 0.00125 200
1 0.269382 0.255282 0.00168479 0.0335092 -0.0130221 0.0970588 0.00125 201
1 0.196324 0.34388 0.00164911 -0.00720371 -0.00206186 0.124054 0.00125 202
1 0.162915 0.17393 0.00231 -0.0106929 -0.00529557 -0.0237207 0.00125 203
1 0.310023 0.348214 0.00157453 0.0156544 0.00063474 0.152702 0.00125 204
1 0.093248 0.322599 0.00218932 0.0207847 -0.00191475 -0.000776528 0.00125 205
1 0.00589582 0.0231396 0.0014526 -0.00257294 0.0326706 0.161569 0.00125 206
1 0.0170719 0.371516 0.00181065 0.0135231 0.0125992 -0.256854 0.00125 207
1 0.0644064 0.162156 0.00149447 -0.0203279 -0.0164886 0.114704 0.00125 208
1 0.159936 0.235097 0.00149097 -0.00739622 -0.0257967 0.146273 0.00125 209
1 0.313768 0.365486 0.00131238 -0.00371205 -0.0266586 0.0990842 0.00125 210
1 0.0915416 0.180856 0.00132516 -0.0237211 -0.0075043 -0.192112 0.00125 211
1 0.0720797 0.209847 0.00135747 0.00838586 -0.011227 0.183866 0.00125 212
1 0.101128 0.359594 0.00135926 -0.000949762 -0.031769 0.173474 0.00125 213
1 0.0979443 0.0923842 0.00173923 -0.0140195 0.000742754 0.139569 0.00125 214
1 0.130909 0.0470467 0.00123012 -0.00332046 -0.0186861 -0.0397571 0.00125 215
1 0.327373 0.382403 0.00142538 0.00137865 0.00822629 -0.24113 0.00125 216
1 0.289662 0.288854 0.00168595 0.0124069 -0.0895302 -0.234078 0.00125 217
1 0.318523 0.336192 0.0014961 0.0215112 -0.00924618 0.11602 0.00125 218
1 0.191091 0.149814 0.00144043 -0.0233417 -0.00470717 -0.239034 0.00125 219
1 0.324563 0.212954 0.0013502 -0.0136424 -0.0343905 -0.109079 0.00125 220
1 0.383977 0.17036 0.00173812 0.0391709 0.0248866 -0.178538 0.00125 221
1 0.166533 0.12428 0.00131425 0.0039727 -0.00912674 0.175749 0.00125 222
1 0.122351 0.173129 0.00215085 0.0236312 -0.00993266 -0.159873 0.00125 223
1 0.0772326 0.114827 0.0013608 0.00156374 -0.00710079 0.182042 0.00125 224
1 0.0249541 0.13034 0.00122402 0.011617 0.0101967 -0.00612365 0.00125 225
1 0.389729 0.305928 0.00168082 0.0082123 -0.00439809 0.0968617 0.00125 226
1 0.223486 0.382498 0.00143643 0.0017608 -7.02716e-05 -0.232063 0.00125 227
1 0.0362513 0.0523437 0.00175793 0.0257357 -0.00661238 -0.0944874 0.00125 228
1 0.0414238 0.326211 0.00155605 -0.0133835 0.00113297 -0.193183 0.00125 229
1 0.284176 0.334282 0.00188432 0.0381404 -0.0186969 -0.231675 0.00125 230
1 0.23254 0.132844 0.00142581 -0.0220023 -0.00635806 0.138434 0.00125 231
1 0.381882 0.131532 0.00140365 0.00962473 0.015252 -0.239116 0.00125 232
1 0.118821 0.211484 0.00142266 0.00286115 0.0114503 0.14172 0.00125 233
1 0.307384 0.387918 0.00134062 -0.0189817 -0.0037463 0.154234 0.00125 234
1 0.137452 0.355148 0.00135234 0.000151906 -0.0129259 -0.222651 0.00125 235
1 0.187469 0.335733 0.00133367 0.0285019 -0.0320853 -0.11759 0.00125 236
1 0.351289 0.183954 0.00124314 0.0180898 0.0180645 0.194928 0.00125 237
1 0.197298 0.120694 0.00133919 0.0225493 -0.0405831 -0.216516 0.00125 238
1 0.132023 0.0831776 0.0013044 -0.0268799 0.0285923 -0.0561572 0.00125 239
1 0.255541 0.313872 0.00142962 0.000451621 0.024274 0.14274 0.00125 240
1 0.21221 0.129997 0.00136193 -0.01703 -0.0170366 -0.235054 0.00125 241
1 0.202867 0.366777 0.0018403 0.00555532 -0.0041286 -0.252839 0.00125 242
1 0.353145 0.180381 0.00136158 -0.00503835 -0.0115086 -0.240388 0.00125 243
1 0.33944 0.360599 0.00156101 0.0208955 0.0142222 -0.230779 0.00125 244
1 0.166596 0.288703 0.001635 -0.0213658 -0.00711926 -0.181828 0.00125 245
1 0.195259 0.379374 0.0014692 0.00550573 0.00257243 -0.237935 0.00125 246
1 0.371323 0.369035 0.00131518 0.00336169 0.0198425 -0.233313 0.00125 247
1 0.364489 0.178899 0.00170847 0.00926841 -0.000177614 -0.195975 0.00125 248
1 0.0573649 0.021675 0.00122677 0.00966202 -0.0249506 -0.147514 0.00125 249
1 0.0688094 0.381866 0.00177629 -0.0173432 0.00973047 -0.216158 0.00125 250
1 0.129827 0.246439 0.00154029 -0.00607409 -0.0138907 -0.19437 0.00125 251
1 0.0737571 0.323308 0.00193238 -0.00855206 0.00695827 -0.085261 0.00125 252
1 0.203262 0.20883 0.00143944 0.0126739 0.0220328 -0.245228 0.00125 253
1 0.374786 0.275036 0.0014196 -0.00651135 0.0118832 0.17213 0.00125 254
1 0.0155732 0.14688 0.00127311 0.020901 -0.00610889 -0.234754 0.00125 255
1 0.385098 0.113128 0.00232161 -0.00321542 -0.00935087 -0.118508 0.00125 256
1 0.0598205 0.261846 0.00144917 0.000406821 -0.00731108 -0.231499 0.00125 257
1 0.0937587 0.196121 0.00129597 0.00425568 0.0148639 -0.247635 0.00125 258
1 0.169401 0.259524 0.0022034 0.0314863 0.0122459 0.0132272 0.00125 259
1 0.23824 0.378599 0.00212725 -0.000307489 0.0339245 0.00289537 0.00125 260
1 0.0331346 0.0362838 0.00248088 -0.0411008 0.0239717 -0.0504845 0.00125 261
1 0.271561 0.0680595 0.00200812 0.005948 -0.0240843 -0.0654632 0.00125 262
1 0.020035 0.210532 0.0015194 0.00771624 0.00460924 -0.232168 0.00125 263
1 0.193026 0.214538 0.0014666 0.0151164 -0.00940551 -0.18021 0.00125 264
1 0.223048 0.11657 0.00220957 -0.0180463 0.00315479 -0.15904 0.00125 265
1 0.337153 0.188939 0.00129994 -0.00659344 -0.0294309 -0.294427 0.00125 266
1 0.1656 0.107772 0.00138995 0.00764158 -0.0155367 -0.235978 0.00125 267
1 0.141155 0.171778 0.00185135 -0.00986169 -0.0183503 -0.0752773 0.00125 268
1 0.220529 0.330007 0.00128561 -0.0211579 0.00240292 -0.245618 0.00125 269
1 0.184321 0.328034 0.00150361 -0.0238567 0.00422321 -0.0867264 0.00125 270
1 0.222347 0.174299 0.00223822 -0.00684545 -0.116477 -0.0419816 0.00125 271
1 0.130741 0.350149 0.00212097 -0.00368541 0.00324716 0.00585121 0.00125 272
1 0.343076 0.153866 0.0016496 0.000176083 0.005901 0.0941409 0.00125 273
1 0.372309 0.0407704 0.00212376 -0.0172988 -0.0194734 -0.0493304 0.00125 274
1 0.183311 0.0170068 0.0017707 0.0154897 -0.0141111 -0.21545 0.00125 275
1 0.385757 0.293786 0.00173461 0.0101925 -0.0307938 -0.0848474 0.00125 276
1 0.171739 0.26953 0.00190788 -0.000658016 0.000618579 -0.242284 0.00125 277
1 0.0229057 0.229045 0.00156527 -0.00738083 0.0095986 -0.174425 0.00125 278
1 0.353262 0.275271 0.00123855 0.00266456 -0.00683125 0.199358 0.00125 279
1 0.370331 0.159149 0.00240181 -0.00534953 0.021557 -0.0482928 0.00125 280
1 0.250293 0.14639 0.00133453 0.0387913 -0.0343013 0.176743 0.00125 281
1 0.346528 0.112384 0.00185033 -0.0148283 0.00139134 -0.154285 0.00125 282
1 0.112135 0.128337 0.00172833 0.00852165 -0.00728983 0.106383 0.00125 283
1 0.0283018 0.350914 0.00214417 -0.00693514 0.000588664 -0.0645306 0.00125 284
1 0.282602 0.352696 0.00157414 -0.000493723 0.0212215 0.137806 0.00125 285
1 0.244622 0.243563 0.00128966 -0.00140527 -0.00551228 0.166144 0.00125 286
1 0.131357 0.302239 0.00151988 0.0315886 -0.00927004 -0.238404 0.00125 287
1 0.0729207 0.222242 0.00172958 -0.017736 -0.00522561 -0.0831503 0.00125 288
1 0.34769 0.100915 0.00123424 -0.00771615 0.000722436 0.125865 0.00125 289
1 0.269263 0.162506 0.00134566 -0.014353 0.0108075 -0.202409 0.00125 290
1 0.0137713 0.0634348 0.00169355 -0.0375109 -0.0220828 -0.228022 0.00125 291
1 0.0196202 0.348451 0.00212726 -0.0165944 0.00191116 -0.0399938 0.00125 292
1 0.297087 0.340952 0.00188024 -0.0075832 -0.00141648 -0.241681 0.00125 293
1 0.365467 0.308522 0.0015674 0.0371504 -0.000848842 -0.177466 0.00125 294
1 0.144168 0.0169219 0.00127646 -0.0160072 0.00606628 -0.207683 0.00125 295
1 0.0180395 0.324052 0.00231329 0.00926642 -0.0101732 0.0234595 0.00125 296
1 0.355296 0.326208 0.00132447 -0.012723 -0.00950677 -0.205165 0.00125 297
1 0.167222 0.390661 0.0014784 0.00845621 0.0030526 0.120575 0.00125 298
1 0.311613 0.0630905 0.00145879 0.00624071 -0.00315675 -0.236921 0.00125 299
1 0.161069 0.232641 0.00144804 -0.0566427 -0.0189359 0.148098 0.00125 300
1 0.0525102 0.00695943 0.00134287 0.00725623 0.0108261 -0.227022 0.00125 301
1 0.0802142 0.114833 0.00147757 -0.0209029 -0.0228355 -0.199712 0.00125 302
1 0.162643 0.386817 0.00128608 0.0394315 0.0023189 0.19 0.00125 303
1 0.288982 0.313286 0.00145403 0.00940929 0.0217565 -0.288489 0.00125 304
1 0.261887 0.155976 0.00132264 -0.0140317 0.0437385 -0.110424 0.00125 305
1 0.35852 0.276805 0.00159248 -0.00631927 -0.0273821 0.0535468 0.00125 306
1 0.381624 0.00300986 0.00161761 -0.0111185 -0.0344889 -0.276462 0.00125 307
1 0.205689 0.337256 0.00138555 -0.00825048 0.00568555 -0.311459 0.00125 308
1 0.0893565 0.132902 0.00129544 0.00760105 -0.0103743 0.268833 0.00125 309
1 0.340397 0.355723 0.00131334 -0.00649741 0.00451009 -0.0826412 0.00125 310
1 0.0046012 0.198348 0.00130372 -0.039326 0.000283601 -0.229498 0.00125 311
1 0.337231 0.00122356 0.00131623 0.00811548 0.00901929 -0.281865 0.00125 312
1 0.187498 0.218231 0.00206087 -0.0635083 -0.0194429 -0.0565438 0.00125 313
1 0.0320547 0.153223 0.00131991 -0.0163426 0.0189854 0.194522 0.00125 314
1 0.249008 0.194789 0.00164239 0.000275704 -0.00650632 -0.242987 0.00125 315
1 0.255669 0.105253 0.0016734 -0.0755134 -0.0456078 -0.0866333 0.00125 316
1 0.0875239 0.284314 0.00144593 0.0249492 0.025939 -0.172669 0.00125 317
1 0.254399 0.0735496 0.00141404 0.0674184 -0.00210091 0.0832759 0.00125 318
1 0.0853096 0.348631 0.00191306 0.0115962 0.00637038 -0.20379 0.00125 319
1 0.141173 0.379639 0.00157744 -0.0104134 -0.00842908 -0.235354 0.00125 320
1 0.19876 0.382514 0.00166539 0.00610481 0.00984835 -0.0573105 0.00125 321
1 0.162761 0.042702 0.00185743 0.00570734 0.016517 -0.0573232 0.00125 322
1 0.135826 0.113084 0.00170998 -0.0460217 0.00900644 -0.129735 0.00125 323
1 0.264638 0.358942 0.00128293 0.00877103 -0.019284 0.186743 0.00125 324
1 0.277188 0.064344 0.00172265 -0.00630274 0.0146541 0.0678208 0.00125 325
1 0.175596 0.342148 0.00128355 0.0193575 0.0145796 0.103761 0.00125 326
1 0.366446 0.20905 0.00123867 -0.013397 -0.00113059 -0.285257 0.00125 327
1 0.195795 0.318643 0.0013603 0.0337427 0.0102909 -0.24919 0.00125 328
1 0.194159 0.0186027 0.0015579 -0.0356604 -0.0054299 -0.201575 0.00125 329
1 0.107763 0.177832 0.00232869 0.0077575 -0.0222672 -0.0122754 0.00125 330
1 0.241761 0.00164133 0.00147307 -0.00278201 0.0249189 -0.0522029 0.00125 331
1 0.238351 0.257788 0.00134611 0.0190782 -0.0378203 0.194488 0.00125 332
1 0.298339 0.19772 0.0014517 0.0138554 0.0174985 0.229994 0.00125 333
1 0.317697 0.329667 0.0016226 0.0346494 0.00771401 -0.285359 0.00125 334
1 0.103906 0.239045 0.00130461 -0.027378 -0.0139516 0.232485 0.00125 335
1 0.0893956 0.329069 0.00128094 0.00910135 -0.0169547 -0.313303 0.00125 336
1 0.0951767 0.386187 0.00128852 0.0142654 -0.0113843 -0.270807 0.00125 337
1 0.016308 0.3296 0.00170332 0.0197049 0.0547751 0.0836266 0.00125 338
1 0.200844 0.342055 0.00218533 0.015741 0.0167301 0.0138784 0.00125 339
1 0.334782 0.214352 0.00127899 -0.0409859 -0.00545768 0.234934 0.00125 340
1 0.184411 0.265117 0.00124194 -0.0192589 -0.00062556 -0.210791 0.00125 341
1 0.0792254 0.0739446 0.00144925 0.0628815 0.0568918 0.129825 0.00125 342
1 0.257406 0.354648 0.00147233 -0.00900976 0.0102358 -0.194621 0.00125 343
1 0.330667 0.359571 0.00123212 0.0251519 -0.0129569 0.206716 0.00125 344
1 0.151533 0.0711655 0.00151551 -0.00169217 0.000660354 -0.264416 0.00125 345
1 0.331032 0.148295 0.00150086 -0.0129653 -0.0281337 0.168157 0.00125 346
1 0.212411 0.0562639 0.00207218 -0.00166488 0.0161946 -0.0301594 0.00125 347
1 0.254941 0.357232 0.00173344 0.0266149 -0.0548013 0.106083 0.00125 348
1 0.0781157 0.0518587 0.00151858 0.0262024 -0.00778361 0.216539 0.00125 349
1 0.0849381 0.0235536 0.00164586 -0.0411579 -0.00530028 0.139888 0.00125 350
1 0.202767 0.28296 0.00136804 -0.0162182 0.00423331 0.160949 0.00125 351
1 0.0797181 0.201899 0.0020003 0.00679277 -0.00143368 -0.181467 0.00125 352
1 0.26279 0.185209 0.00131745 0.00114644 -0.0369764 -0.2606 0.00125 353
1 0.343507 0.235001 0.00159384 0.00816143 0.0104112 -0.0956641 0.00125 354
1 0.040016 0.210648 0.00132813 -0.0102413 -0.0020793 -0.223904 0.00125 355
1 0.02216 0.0813462 0.00130157 0.00370299 0.0190778 -0.223524 0.00125 356
1 0.0391071 0.36256 0.00144508 0.0151125 0.000331314 -0.248265 0.00125 357
1 0.148701 0.264939 0.00129736 0.00156091 0.0191404 -0.206957 0.00125 358
1 0.0319981 0.0918194 0.00157302 0.00577995 0.0186566 0.102208 0.00125 359
1 0.124519 0.00827692 0.00177 -0.000304724 -0.0152167 0.10946 0.00125 360
1 0.369967 0.0905692 0.00218784 -0.00539595 0.00581887 -0.15238 0.00125 361
1 0.233673 0.0249624 0.00129092 -0.00221277 0.00757005 -0.0084131 0.00125 362
1 0.311282 0.267046 0.00142359 0.0121028 -0.00885168 0.23819 0.00125 363
1 0.0998579 0.0429794 0.00135041 0.00632643 -0.0297436 -0.227426 0.00125 364
1 0.335178 0.0657205 0.0012662 0.0163037 0.00342164 0.2105 0.00125 365
1 0.0603562 0.0889228 0.00144045 -0.0144956 0.0237517 -0.21432 0.00125 366
1 0.35701 0.0450795 0.00133622 -0.0166647 -0.0129588 0.196475 0.00125 367
1 0.0931276 0.228837 0.00179658 -0.0553064 -0.0298138 -0.141082 0.00125 368
1 0.283949 0.14406 0.00131136 -0.00205044 -0.0118822 -0.220802 0.00125 369
1 0.268565 0.262964 0.00159534 -0.0141672 -0.00444031 -0.18122 0.00125 370
1 0.37182 0.235235 0.00126976 -0.026851 0.027517 0.188608 0.00125 371
1 0.212945 0.236151 0.00191618 0.00343293 -0.0137934 -0.202029 0.00125 372
1 0.353382 0.0734437 0.00123229 -0.0111962 0.00574026 0.123759 0.00125 373
1 0.281453 0.0471187 0.00239519 0.0218728 -0.0091668 0.0250366 0.00125 374
1 0.27574 0.0605201 0.00129843 0.0181084 0.0095286 0.233521 0.00125 375
1 0.0543015 0.228109 0.00129613 -0.00589471 -0.0212953 -0.270308 0.00125 376
1 0.164157 0.237925 0.00157979 -0.0444933 -0.0086469 -0.198132 0.00125 377
1 0.279509 0.260637 0.00134812 -0.0109546 -0.00620307 -0.00251159 0.00125 378
1 0.161739 0.18275 0.00192304 -0.00881068 -0.0162121 -0.210837 0.00125 379
1 0.281244 0.0133871 0.00147618 0.0155686 0.0270179 0.11725 0.00125 380
1 0.0835811 0.340741 0.00246222 0.00206073 0.0114768 -0.0461375 0.00125 381
1 0.30483 0.353507 0.00125342 -0.0246618 0.00108473 0.260121 0.00125 382
1 0.0836817 0.151059 0.00205619 -0.0261909 -0.0349784 -0.135545 0.00125 383
1 0.17251 0.220402 0.00198989 -0.0529174 0.0363514 -0.193339 0.00125 384
1 0.199285 0.131086 0.00134491 0.0110627 0.0261714 0.223714 0.00125 385
1 0.0851327 0.386173 0.00167321 -0.00144511 0.0341245 0.138267 0.00125 386
1 0.0234793 0.154883 0.00174656 -0.013836 -0.0184009 -0.0774162 0.00125 387
1 0.06083 0.136527 0.00137908 0.0354178 -0.0144387 0.157224 0.00125 388
1 0.242092 0.118938 0.00161817 0.0105219 0.0132918 -0.181372 0.00125 389
1 0.371686 0.27892 0.00194816 -0.0871381 0.0532028 -0.108274 0.00125 390
1 0.173996 0.0193245 0.00147435 0.0154986 -0.0118142 0.108897 0.00125 391
1 0.381815 0.300921 0.00128933 0.0183108 0.000554328 -0.0759148 0.00125 392
1 0.0145126 0.292532 0.0013879 -0.0247364 -0.0276597 0.152963 0.00125 393
1 0.0310538 0.0155876 0.00145216 -0.000132255 0.00501426 0.13564 0.00125 394
1 0.364058 0.0473773 0.00140573 0.0400294 0.0243644 -0.0927313 0.00125 395
1 0.241531 0.264398 0.00240655 -0.00831298 -0.0185948 -0.0476728 0.00125 396
1 0.112321 0.0282485 0.00125525 -0.0106795 -0.00607119 0.182738 0.00125 397
1 0.284973 0.366758 0.00170513 -0.017848 0.00247958 -0.240323 0.00125 398
1 0.182232 0.0438321 0.00141515 -0.00731427 0.0056271 -0.236558 0.00125 399