ITEM: TIMESTEP
1000000
ITEM: NUMBER OF ATOMS
10000
ITEM: BOX BOUNDS pp pp ff
0.0000000000000000e+00 8.6319743625000001e-01
0.0000000000000000e+00 8.6319743625000001e-01
-1.2500000000000001e-02 1.2500000000000001e-02
ITEM: ATOMS type x y z vx vy vz radius id
1 0.860901 0.201521 0.00142803 -0.0100383 -0.00329598 0.139915 0.00125 1
1 0.386515 0.731715 0.00150529 -0.0060331 0.00292646 0.116904 0.00125 2
1 0.405439 0.118082 0.00144964 0.00491975 0.00225855 0.137132 0.00125 3
1 0.830839 0.506423 0.00149159 -0.00962473 0.00377418 0.207422 0.00125 4
1 0.419893 0.751134 0.00166674 0.00882665 0.0107965 -0.0909279 0.00125 5
1 0.0748968 0.319749 0.00138204 -0.00449666 -0.00607685 -0.238752 0.00125 6
1 0.0463276 0.635716 0.00124057 0.00263226 -0.000499586 0.236022 0.00125 7
1 0.391587 0.423934 0.0022588 0.00669004 0.00572495 -0.053234 0.00125 8
1 0.729914 0.774777 0.00125145 0.00241673 0.00271893 -0.0889254 0.00125 9
1 0.353692 0.40303 0.0024627 -0.00531206 0.00302783 -0.0461526 0.00125 10
1 0.0482033 0.0836413 0.00139229 0.00837848 0.000179945 -0.182947 0.00125 11
1 0.109552 0.70958 0.00174956 0.0035514 -0.00397782 0.136285 0.00125 12
1 0.353777 0.0506337 0.00134481 0.00626362 0.0225046 0.228782 0.00125 13
1 0.030657 0.716687 0.00157063 0.00491858 -0.00293937 0.0797919 0.00125 14
1 0.857075 0.243798 0.00143225 -0.00222492 0.000589945 0.218015 0.00125 15
1 0.601158 0.172649 0.00160962 0.00116231 0.0264811 0.0933913 0.00125 16
1 0.593036 0.678132 0.00206812 0.0020118 0.00496193 -0.180631 0.00125 17
1 0.170641 0.813974 0.00130774 -0.00370034 0.00639766 -0.273634 0.00125 18
1 0.307234 0.722057 0.00152508 -0.00238978 -0.00471606 -0.259099 0.00125 19
1 0.329317 0.67729 0.00158654 -0.00624761 -3.20564e-05 -0.179249 0.00125 20
1 0.46879 0.104442 0.00132546 0.0016132 -0.00092149 0.173591 0.00125 21
1 0.448491 0.603909 0.00219969 -0.014959 0.00873587 -0.0568048 0.00125 22
1 0.173108 0.588794 0.00161902 -0.000986009 -0.0213175 -0.0712717 0.00125 23
1 0.576998 0.735694 0.00143401 -0.00192071 0.0166949 -0.200956 0.00125 24
1 0.0299201 0.26164 0.0018757 -0.00385268 0.0015636 -0.151481 0.00125 25
1 0.0565563 0.148279 0.00160248 0.00680108 0.000673732 -0.229692 0.00125 26
1 0.374192 0.185516 0.00127005 0.00136895 0.000706314 0.0556878 0.00125 27
1 0.724006 0.793733 0.0014751 0.00492743 7.53426e-05 -0.23112 0.00125 28
1 0.0228057 0.843883 0.0013291 0.00153547 -0.000164838 -0.221601 0.00125 29
1 0.41347 0.667756 0.00190986 0.00475563 -0.00191086 -0.238598 0.00125 30
1 0.619986 0.327377 0.00130827 0.0102707 -0.00300403 0.19897 0.00125 31
1 0.657869 0.205394 0.00218436 0.0020771 0.00304972 -0.0481775 0.00125 32
1 0.610205 0.325438 0.00167774 0.000133473 0.00351308 -0.269065 0.00125 33
1 0.182309 0.791547 0.00163685 -0.00532368 -0.00186517 -0.0922975 0.00125 34
1 0.0759669 0.212212 0.00146327 0.00176313 0.00545286 -0.0743395 0.00125 35
1 0.190042 0.54021 0.00242229 -0.00422987 -0.00390728 0.0254846 0.00125 36
1 0.124733 0.377715 0.00135549 0.000778944 -0.000995107 -0.234072 0.00125 37
1 0.844685 0.819523 0.00135081 -0.000959357 0.00538944 -0.237429 0.00125 38
1 0.771792 0.784585 0.0016574 0.00215466 0.00331337 -0.225832 0.00125 39
1 0.30703 0.427623 0.00174438 0.00279521 -0.00580687 0.181646 0.00125 40
1 0.279438 0.309824 0.00131531 0.0204777 0.00823411 0.233683 0.00125 41
1 0.114994 0.55866 0.00123284 0.000908556 -0.00118448 0.0610887 0.00125 42
1 0.778526 0.126849 0.00132793 -0.00962935 -0.013074 0.232208 0.00125 43
1 0.501802 0.686269 0.00132372 0.00838326 0.000894454 -0.28151 0.00125 44
1 0.664536 0.779366 0.00176274 -0.0110318 0.0010967 0.167935 0.00125 45
1 0.15804 0.375264 0.00126047 -0.00649975 -0.00146514 -0.232577 0.00125 46
1 0.294105 0.152479 0.00129632 -0.0011782 -0.00347576 0.0586143 0.00125 47
1 0.0607987 0.0881864 0.00162661 -0.0120999 -0.00285161 -0.234876 0.00125 48
1 0.112305 0.0247195 0.00172317 -0.00175564 0.00601801 0.0940695 0.00125 49
1 0.402247 0.656698 0.0013742 0.00168758 -0.00078411 -0.22846 0.00125 50
1 0.739101 0.00674611 0.00180138 0.0167905 0.0109614 -0.0786934 0.00125 51
1 0.0623046 0.398121 0.00248353 -0.00426679 0.00340675 -0.0304716 0.00125 52
1 0.143739 0.109508 0.00174108 -0.00363785 -0.003059 0.112673 0.00125 53
1 0.111492 0.535165 0.0014458 0.00083701 0.000851968 -0.182427 0.00125 54
1 0.317019 0.418003 0.00133913 0.0022064 0.00329939 -0.225172 0.00125 55
1 0.618231 0.0218646 0.00135661 0.00800871 0.0166561 -0.23359 0.00125 56
1 0.234284 0.587163 0.00138492 0.00247818 -0.00399432 0.154564 0.00125 57
1 0.126713 0.560542 0.00132202 -0.0216306 -0.0110444 0.231056 0.00125 58
1 0.856892 0.31237 0.00231965 -0.0131171 -0.00594481 0.0242712 0.00125 59
1 0.379843 0.604196 0.00229388 0.000219189 -0.000832208 -0.157071 0.00125 60
1 0.386824 0.596001 0.00171121 0.0218437 0.0265315 0.125135 0.00125 61
1 0.0658872 0.735321 0.00146872 0.00280157 0.00376605 0.207914 0.00125 62
1 0.566647 0.363137 0.00141254 0.00183884 -0.000448063 0.148416 0.00125 63
1 0.16811 0.3834 0.00129675 0.0124172 -0.00951559 0.269233 0.00125 64
1 0.77299 0.628761 0.00193114 -0.00765037 0.0232201 -0.00988223 0.00125 65
1 0.661788 0.606977 0.00230845 -0.00333924 -0.00415639 -0.125316 0.00125 66
1 0.749961 0.0767166 0.00135156 -0.00238264 -0.00122025 -0.0641597 0.00125 67
1 0.790855 0.573651 0.00141596 0.000256333 0.00183524 -0.239366 0.00125 68
1 0.541665 0.603759 0.00165019 0.00161661 0.00319799 -0.175152 0.00125 69
1 0.765396 0.251732 0.00123062 -0.000631195 0.00154795 -0.218399 0.00125 70
1 0.218824 0.705899 0.00127047 -0.0118276 -0.00445166 0.259921 0.00125 71
1 0.238524 0.5475 0.00154858 -0.00469829 0.00839299 -0.229234 0.00125 72
1 0.12294 0.18784 0.00145393 0.00952871 -0.00375455 -0.232232 0.00125 73
1 0.830996 0.681745 0.00124885 -0.000409178 -0.00123601 -0.246546 0.00125 74
1 0.343553 0.638902 0.00135978 0.00561552 0.0118311 -0.311216 0.00125 75
1 0.808117 0.598071 0.00207962 0.00145138 0.00265563 -0.178632 0.00125 76
1 0.374209 0.235907 0.00125931 -0.00149463 0.00206478 -0.30721 0.00125 77
1 0.30591 0.702402 0.00159013 0.00406239 0.000917895 -0.0838207 0.00125 78
1 0.323908 0.458787 0.00181152 0.00294722 -0.0126759 -0.05138 0.00125 79
1 0.709904 0.0712184 0.00155897 -0.00135227 -0.000441843 -0.236346 0.00125 80
1 0.439452 0.622403 0.00190537 0.0189783 0.00620882 -0.242722 0.00125 81
1 0.272363 0.642222 0.00126416 -0.0145658 0.00117859 0.210433 0.00125 82
1 0.699473 0.167196 0.00237203 -0.0165749 0.026478 -0.105076 0.00125 83
1 0.568798 0.686567 0.00136154 -0.00310899 -0.00137648 0.167724 0.00125 84
1 0.610048 0.0584637 0.00167054 -0.000540539 0.00417955 -0.275849 0.00125 85
1 0.0419755 0.46027 0.0014036 0.00536252 -0.00841092 -0.304435 0.00125 86
1 0.41162 0.216077 0.00157796 -0.0199591 0.0220969 0.0792849 0.00125 87
1 0.50827 0.155167 0.00144385 -0.0102982 -0.00560789 0.218663 0.00125 88
1 0.0553157 0.545087 0.00149361 0.00736851 -0.00103903 -0.196892 0.00125 89
1 0.289179 0.407542 0.0012974 -0.000485597 0.00282206 0.177092 0.00125 90
1 0.455867 0.499644 0.00142649 -0.00747326 -0.00341162 0.14393 0.00125 91
1 0.783472 0.567545 0.00192174 -0.000553647 -0.00280244 -0.214528 0.00125 92
1 0.374955 0.774547 0.002444 -0.0121494 -0.00737936 -0.0378073 0.00125 93
1 0.143613 0.380468 0.00142145 0.0067894 0.0111348 -0.236135 0.00125 94
1 0.834498 0.356976 0.00131366 0.0012836 0.00117697 -0.23234 0.00125 95
1 0.00606132 0.766474 0.00157785 0.000248459 -0.00710529 0.0835553 0.00125 96
1 0.0664198 0.257823 0.0014508 0.00416715 0.00772694 0.135341 0.00125 97
1 0.0987259 0.0891426 0.0016329 -0.00201593 0.00391412 -0.056415 0.00125 98
1 0.280814 0.320508 0.00173721 -0.000910845 -4.52214e-05 -0.226494 0.00125 99
1 0.373883 0.299632 0.00131766 0.00198947 -0.000151349 -0.235211 0.00125 100
1 0.570754 0.544851 0.0012327 -0.0155395 -0.00147807 -0.110726 0.00125 101
1 0.0613014 0.315885 0.00131715 -0.00795445 -0.0118247 0.176869 0.00125 102
1 0.267175 0.2281 0.00160896 0.00326148 0.00556808 -0.287202 0.00125 103
1 0.702871 0.171431 0.0018088 0.00556577 0.00736122 -0.0491133 0.00125 104
1 0.482793 0.0826687 0.00127768 0.0130161 -0.0160251 -0.224068 0.00125 105
1 0.10394 0.576487 0.001551 -0.00468359 0.00589483 -0.182878 0.00125 106
1 0.258407 0.404649 0.0016068 0.0270152 -0.00277786 -0.0915587 0.00125 107
1 0.841479 0.130288 0.00127098 -0.00136084 -0.00707809 -0.230386 0.00125 108
1 0.182707 0.363959 0.00129081 0.00784257 0.00233969 -0.232606 0.00125 109
1 0.0187198 0.320523 0.00150127 -0.00144299 0.00051308 -0.238525 0.00125 110
1 0.75002 0.190519 0.00142744 0.0184141 -0.00290752 0.212194 0.00125 111
1 0.559282 0.301695 0.00132685 -0.00629089 0.00395324 -0.253842 0.00125 112
1 0.00931643 0.203224 0.00130395 -0.00517983 -0.00813932 -0.234949 0.00125 113
1 0.616457 0.521073 0.00132502 -0.00227208 -0.000262708 0.176583 0.00125 114
1 0.671469 0.232195 0.0024753 0.00288615 0.00459934 -0.0450429 0.00125 115
1 0.398148 0.349379 0.00163771 -0.0203711 -0.00745324 0.0925129 0.00125 116
1 0.171648 0.808535 0.00129829 0.00681838 0.00507865 -0.229458 0.00125 117
1 0.584038 0.708477 0.00164686 -0.00258638 0.000474834 -0.095338 0.00125 118
1 0.493117 0.437749 0.00148807 0.000692328 -0.00251813 -0.0645084 0.00125 119
1 0.713778 0.519552 0.0014088 -0.00372933 0.0115244 -0.230271 0.00125 120
1 0.842332 0.499917 0.00153789 -0.00536246 0.00442466 -0.188211 0.00125 121
1 0.646438 0.35355 0.00210239 -0.00142417 -0.000621623 -0.17346 0.00125 122
1 0.431394 0.750707 0.00201522 0.00309051 0.000617365 -0.0771492 0.00125 123
1 0.161764 0.0411141 0.00171471 -0.00214936 0.00254827 0.0680769 0.00125 124
1 0.299722 0.0199056 0.00148275 0.00224754 -2.36322e-05 -0.229504 0.00125 125
1 0.761041 0.129971 0.00166248 -0.00221342 0.00100881 -0.158694 0.00125 126
1 0.775706 0.591307 0.00131726 -0.00396599 -0.000645847 0.175834 0.00125 127
1 0.205435 0.154193 0.00142036 -0.000949694 -0.00795326 0.180366 0.00125 128
1 0.356563 0.0314682 0.00149867 0.000572953 0.00263302 -0.229866 0.00125 129
1 0.239463 0.415574 0.00123394 0.00543971 0.00313307 -0.210663 0.00125 130
1 0.743889 0.434667 0.00128988 0.00226366 -0.00658341 -0.233646 0.00125 131
1 0.556684 0.295005 0.00125113 -0.0294406 0.00396155 -0.229863 0.00125 132
1 0.166408 0.287122 0.00124833 0.00491841 0.0127574 0.197648 0.00125 133
1 0.335248 0.81188 0.00176993 0.00254978 -0.0121382 -0.0302762 0.00125 134
1 0.664669 0.534694 0.00122934 -0.00432403 0.00329521 0.0483054 0.00125 135
1 0.108507 0.286466 0.00157164 0.00151005 0.00113039 0.0988887 0.00125 136
1 0.687845 0.180309 0.00140358 0.000681369 -0.000106381 0.147441 0.00125 137
1 0.21114 0.0763242 0.0013873 -0.00240557 0.00310989 0.155898 0.00125 138
1 0.481049 0.051424 0.0013658 -0.00903011 0.00684061 -0.234647 0.00125 139
1 0.107019 0.571827 0.00123362 -0.00651936 0.000743192 -0.206642 0.00125 140
1 0.245177 0.285336 0.00136191 -0.0286487 0.0105531 0.129589 0.00125 141
1 0.330321 0.263209 0.00123617 9.00153e-05 0.00151556 0.222796 0.00125 142
1 0.577464 0.51957 0.0012617 -0.00143741 -0.00119833 0.193106 0.00125 143
1 0.651399 0.31378 0.00176324 0.00306768 0.0112475 -0.21708 0.00125 144
1 0.61812 0.509642 0.00133847 -0.0147576 0.00558888 -0.233645 0.00125 145
1 0.453036 0.275253 0.00165328 -0.00759027 0.0159199 -0.0899865 0.00125 146
1 0.771633 0.231098 0.00127965 -0.021463 -0.0150262 -0.230874 0.00125 147
1 0.132991 0.20212 0.00127095 -0.000156744 0.000970649 -0.247898 0.00125 148
1 0.657861 0.418555 0.00215558 0.012869 -0.0171864 -0.158937 0.00125 149
1 0.637845 0.494459 0.0024355 -0.00191474 -0.00312335 -0.0359219 0.00125 150
1 0.25629 0.68175 0.00238958 0.00881072 0.00829363 -0.0407255 0.00125 151
1 0.107256 0.47049 0.00166162 0.00320072 0.00615189 -0.225903 0.00125 152
1 0.817107 0.584944 0.00155366 0.016918 0.00759611 -0.235724 0.00125 153
1 0.760852 0.310157 0.00160433 0.0041399 0.000180466 -0.228334 0.00125 154
1 0.0979852 0.45154 0.00140593 -0.00335964 1.70553e-05 0.245849 0.00125 155
1 0.409183 0.337447 0.00242901 -0.00148655 -0.00126479 -0.0382444 0.00125 156
1 0.222367 0.15468 0.0014719 -0.0104109 0.0037196 -0.240369 0.00125 157
1 0.704574 0.79671 0.00237218 0.00232709 0.0035593 -0.0420162 0.00125 158
1 0.200323 0.437022 0.00197997 0.00559937 -0.00162033 -0.0254247 0.00125 159
1 0.382619 0.151706 0.00149232 0.0046833 -0.00711171 -0.238734 0.00125 160
1 0.698194 0.411869 0.00238758 0.00584912 -0.0105829 -0.0414773 0.00125 161
1 0.101812 0.579814 0.0016085 -0.00234217 -0.00108861 0.0926444 0.00125 162
1 0.860238 0.72522 0.00154565 0.00347239 4.61232e-05 0.10324 0.00125 163
1 0.400868 0.828029 0.00124371 0.0144368 0.00516724 0.218002 0.00125 164
1 0.58874 0.78006 0.00145276 0.0083157 -0.00624967 -0.228426 0.00125 165
1 0.199336 0.339627 0.00141137 0.00363027 -0.00379429 -0.239355 0.00125 166
1 0.218804 0.410069 0.00127878 0.0195754 -0.0059127 -0.232223 0.00125 167
1 0.675582 0.560835 0.00140327 -0.000534198 0.000499102 0.172118 0.00125 168
1 0.710176 0.745716 0.00141649 0.00296733 0.00331762 0.176674 0.00125 169
1 0.211431 0.451074 0.00152177 0.00468176 0.0075491 0.107753 0.00125 170
1 0.243422 0.701605 0.00201715 0.00184505 -0.00132298 -0.187639 0.00125 171
1 0.850686 0.173331 0.00128701 0.0127926 0.0100395 0.180372 0.00125 172
1 0.429639 0.564209 0.00176384 -0.00120352 -0.000336698 0.0827108 0.00125 173
1 0.0455479 0.105391 0.00129935 0.00273642 -0.0138249 0.181816 0.00125 174
1 0.311707 0.106046 0.00138815 0.00984636 -0.0111864 0.251057 0.00125 175
1 0.3867 0.0448913 0.00125796 0.00779089 0.000787037 0.198123 0.00125 176
1 0.045771 0.693168 0.00171213 -0.00492135 0.00910172 -0.271291 0.00125 177
1 0.0367958 0.220895 0.0013867 0.000814373 -0.00182019 0.180336 0.00125 178
1 0.310147 0.432723 0.0012426 -0.00615488 -0.00347472 0.0334159 0.00125 179
1 0.545675 0.536697 0.00152098 -0.00111318 -0.000897575 -0.176843 0.00125 180
1 0.0328655 0.166064 0.00123777 -0.0018794 0.000378634 0.169953 0.00125 181
1 0.505121 0.104701 0.00127268 -0.000542016 0.000328304 0.247848 0.00125 182
1 0.535086 0.00869997 0.001466 -0.00350157 0.0050565 -0.241083 0.00125 183
1 0.278981 0.835628 0.00139185 0.00472328 -0.0159597 0.178956 0.00125 184
1 0.366338 0.529731 0.00153509 -0.0100543 -0.00234616 0.109578 0.00125 185
1 0.461582 0.399091 0.00138142 0.00193864 -0.00318441 0.182668 0.00125 186
1 0.20912 0.529682 0.00133941 -0.0135117 0.00216389 0.222127 0.00125 187
1 0.765272 0.77949 0.00142744 0.00127841 -0.00598671 -0.249207 0.00125 188
1 0.52753 0.641533 0.00213657 0.00743551 -0.000647896 -0.0604789 0.00125 189
1 0.587017 0.0597741 0.00139976 0.00747623 -0.0077772 0.151901 0.00125 190
1 0.726269 0.528864 0.00132997 -0.00104229 -0.00147326 -0.235702 0.00125 191
1 0.0473023 0.5538 0.00164788 0.0512068 -0.00760573 -0.0768548 0.00125 192
1 0.399906 0.101852 0.00143046 0.0017826 0.00256331 0.238304 0.00125 193
1 0.197721 0.821174 0.00185045 -0.00143749 -0.00307645 -0.0746658 0.00125 194
1 0.262225 0.757309 0.00153768 -0.00374982 -0.00564305 -0.0735985 0.00125 195
1 0.633798 0.8381 0.00125275 0.00606922 -0.00120095 0.199427 0.00125 196
1 0.119795 0.434709 0.00131326 0.0141992 0.00217987 -0.237495 0.00125 197
1 0.841092 0.651046 0.00171592 0.00131395 -0.000186604 0.0637328 0.00125 198
1 0.299703 0.438189 0.00128267 -0.00291055 -0.00329014 0.186983 0.00125 199
1 0.833094 0.55725 0.00226175 -0.00254477 0.00282364 0.0189629 0.00125 200
1 0.742654 0.756879 0.0014356 0.00525085 -0.00432775 0.170772 0.00125 201
1 0.831292 0.839617 0.00132014 -0.0021855 -0.00316051 0.232288 0.00125 202
1 0.183404 0.149659 0.00142728 -0.00465248 -0.00416444 0.168283 0.00125 203
1 0.431121 0.273846 0.00152442 0.00119618 -0.0135027 -0.176489 0.00125 204
1 0.455863 0.748887 0.0013144 0.00521548 0.000495271 0.242714 0.00125 205
1 0.125364 0.354013 0.00176891 0.00207805 -0.00256499 0.171778 0.00125 206
1 0.614772 0.451918 0.00180703 0.00120992 -0.00434511 0.105991 0.00125 207
1 0.62752 0.0589985 0.00130917 -0.00418445 0.00299504 -0.2526 0.00125 208
1 0.193328 0.797951 0.00147631 -0.00339824 0.00167258 -0.195268 0.00125 209
1 0.163154 0.215227 0.00134574 0.00926771 -0.0027632 0.166626 0.00125 210
1 0.118765 0.402829 0.00148175 0.00945447 0.00775741 -0.179774 0.00125 211
1 0.0395548 0.560017 0.001298 -0.00348489 -0.00196531 0.185278 0.00125 212
1 0.735441 0.641208 0.00229018 0.00918432 -0.00456693 -0.0416222 0.00125 213
1 0.609358 0.690017 0.00136364 -0.000846484 0.000717979 -0.252269 0.00125 214
1 0.385196 0.31291 0.00176036 0.00596114 -0.0148238 -0.0807087 0.00125 215
1 0.0107498 0.47012 0.00127933 0.00800169 -0.00251779 -0.229625 0.00125 216
1 0.465084 0.0363909 0.0012265 2.54217e-05 -0.0026164 -0.0108762 0.00125 217
1 0.161857 0.0114435 0.00178845 -0.00432585 -0.00328695 0.157083 0.00125 218
1 0.0932361 0.0850887 0.00182226 0.00236683 0.000767165 -0.082973 0.00125 219
1 0.53328 0.117504 0.00157713 0.00602744 -0.00681208 -0.22969 0.00125 220
1 0.409585 0.460827 0.00130985 0.0249704 -0.00129201 -0.253215 0.00125 221
1 0.664729 0.399258 0.00194576 -0.00148939 -0.000591251 -0.188149 0.00125 222
1 0.289175 0.723848 0.00138602 -0.00638696 0.0176901 -0.239312 0.00125 223
1 0.819905 0.0378129 0.00143199 -0.00141699 0.00409059 -0.227026 0.00125 224
1 0.237 0.239413 0.00240083 0.00590976 -0.00493119 -0.034778 0.00125 225
1 0.379772 0.564889 0.0014352 0.000781547 -0.0118085 0.140044 0.00125 226
1 0.610921 0.486407 0.0015931 0.000760978 -0.00624733 -0.187571 0.00125 227
1 0.812171 0.619543 0.00227578 0.0254901 0.0208522 -0.0486714 0.00125 228
1 0.210068 0.582062 0.001246 8.96568e-05 0.000312862 -0.299181 0.00125 229
1 0.552972 0.446153 0.00124913 -0.00352228 -0.00711574 -0.0624822 0.00125 230
1 0.107784 0.814628 0.00148899 -0.0017304 0.0037952 0.0753333 0.00125 231
1 0.567466 0.159144 0.00187915 -0.0103701 0.00218212 -0.221948 0.00125 232
1 0.767552 0.382801 0.00124424 0.00335677 0.000627701 0.241849 0.00125 233
1 0.559345 0.782148 0.00248465 -0.00220794 0.0116151 -0.0349189 0.00125 234
1 0.455463 0.107834 0.00159522 0.00757184 0.0073819 -0.170925 0.00125 235
1 0.267937 0.711915 0.0021091 -0.00722841 -0.00159226 -0.17369 0.00125 236
1 0.826038 0.198814 0.00149234 -0.0013847 -0.00913039 0.0640804 0.00125 237
1 0.531352 0.365189 0.00125113 -0.00274356 0.00383505 0.213477 0.00125 238
1 0.587811 0.10501 0.00155949 0.00695603 0.00144526 -0.23546 0.00125 239
1 0.247201 0.76829 0.00142492 0.00374123 -0.00133778 0.238016 0.00125 240
1 0.0425995 0.422388 0.00241081 -0.000345276 -0.00697566 -0.0898866 0.00125 241
1 0.746147 0.731705 0.00222558 -0.00923406 0.0117146 -0.0789098 0.00125 242
1 0.0250351 0.336246 0.00213492 8.11429e-05 -0.00131514 -0.0729119 0.00125 243
1 0.68153 0.410296 0.00182275 0.00409377 0.00124782 -0.255338 0.00125 244
1 0.200833 0.296751 0.00143154 0.00204615 0.00245187 0.218856 0.00125 245
1 0.0224885 0.243903 0.00172726 0.000246152 0.000794889 -0.0897813 0.00125 246
1 0.362268 0.241795 0.00125396 0.00422296 -0.00604188 -0.235909 0.00125 247
1 0.858772 0.437796 0.0013198 -0.000840362 0.00414388 0.175672 0.00125 248
1 0.204215 0.182571 0.00173908 0.00508647 0.0066844 -0.0795025 0.00125 249
1 0.337892 0.466321 0.00154366 -0.000370611 -0.00849373 -0.236126 0.00125 250
1 0.146569 0.616447 0.00125244 0.00594016 -0.00229451 0.219167 0.00125 251
1 0.859046 0.170122 0.00133724 -0.0234477 0.00904924 -0.236421 0.00125 252
1 0.798487 0.205846 0.00231848 -0.00826861 -0.00463954 -0.0459932 0.00125 253
1 0.594962 0.000158318 0.00135966 -0.00259424 -0.00233662 0.162636 0.00125 254
1 0.645511 0.260821 0.00132975 -0.000404207 -0.000533587 0.230658 0.00125 255
1 0.646547 0.12251 0.00195148 -0.00333732 0.00651634 -0.207492 0.00125 256
1 0.146519 0.446796 0.00141466 0.00826483 -0.00638078 -0.230607 0.00125 257
1 0.811883 0.269658 0.00188737 0.0131946 -0.00664234 -0.247507 0.00125 258
1 0.475578 0.741049 0.00130029 0.00152022 0.00368536 -0.23347 0.00125 259
1 0.359542 0.0316639 0.00235692 -0.00241202 -0.00216891 -0.11031 0.00125 260
1 0.380639 0.615731 0.00221199 0.00285416 0.00484766 -0.15756 0.00125 261
1 0.103421 0.746107 0.00188901 0.00504552 -0.0104569 -0.0765786 0.00125 262
1 0.54635 0.181167 0.00131587 -0.00312945 -0.0202397 0.176375 0.00125 263
1 0.245084 0.277006 0.00157683 0.0073406 -0.00433037 -0.176298 0.00125 264
1 0.452686 0.278105 0.00134971 0.0122898 0.011854 0.188046 0.00125 265
1 0.726609 0.768888 0.00147542 0.00351346 -0.00432882 0.207881 0.00125 266
1 0.610385 0.30604 0.00244762 -0.00757541 -0.0146084 -0.0586303 0.00125 267
1 0.431002 0.764747 0.00125341 0.00407762 -0.00454512 -0.228348 0.00125 268
1 0.279661 0.551918 0.00151885 0.0198513 -0.00199148 0.112255 0.00125 269
1 0.779605 0.657558 0.00203502 -0.000682199 0.000539893 -0.0298169 0.00125 270
1 0.67461 0.737434 0.00135431 -0.00166676 0.0075073 -0.271384 0.00125 271
1 0.689575 0.0120753 0.00129757 0.0116325 -0.00125831 0.204599 0.00125 272
1 0.489131 0.119983 0.00175406 0.00337209 0.000333705 -0.0813499 0.00125 273
1 0.84956 0.469219 0.00178892 0.00161741 -0.00632425 0.0893407 0.00125 274
1 0.784465 0.790178 0.0016776 0.00813837 0.013491 0.0929703 0.00125 275
1 0.727502 0.0146802 0.00130867 0.00781304 -0.00380584 0.231557 0.00125 276
1 0.80355 0.792488 0.00172783 -0.00321353 -0.00229995 0.117066 0.00125 277
1 0.725179 0.505012 0.00239392 -0.00302627 0.0105534 -0.125793 0.00125 278
1 0.0682609 0.366981 0.00141843 -0.00713609 0.0113292 0.143249 0.00125 279
1 0.809488 0.732838 0.00171981 -0.00755312 -0.000906563 -0.18976 0.00125 280
1 0.54411 0.634164 0.00142115 -0.00101686 -0.0111591 0.212372 0.00125 281
1 0.561249 0.745402 0.00232504 0.00392467 0.0133504 -0.0454397 0.00125 282
1 0.788612 0.823138 0.00128521 -0.00533597 0.00352368 -0.229314 0.00125 283
1 0.299823 0.296276 0.00143687 -0.00211312 0.00545263 -0.239395 0.00125 284
1 0.167113 0.441153 0.00147958 -0.00467379 0.0028779 -0.232195 0.00125 285
1 0.0216915 0.0871988 0.00163472 -0.00536451 0.000928983 -0.0910088 0.00125 286
1 0.336225 0.608675 0.0024513 0.00222279 -0.00164871 0.0341797 0.00125 287
1 0.290103 0.548521 0.00124491 0.000241299 0.00493023 -0.195468 0.00125 288
1 0.643368 0.641333 0.00168616 -0.0081474 -0.00871171 -0.0861702 0.00125 289
1 0.770647 0.512532 0.00125313 0.00136907 -0.000212194 0.195289 0.00125 290
1 0.483098 0.538092 0.0019814 -0.00256577 0.00633876 -0.0770974 0.00125 291
1 0.0554763 0.798948 0.00152586 -0.0125504 0.0122158 -0.192395 0.00125 292
1 0.407679 0.498406 0.00126108 -0.00825451 -0.00392424 0.19697 0.00125 293
1 0.741979 0.861389 0.0014162 -0.00424596 0.00122536 0.169824 0.00125 294
1 0.692367 0.082944 0.00171188 0.00507612 0.00220188 -0.197167 0.00125 295
1 0.839815 0.850311 0.00140758 0.00275493 -0.00226612 -0.241016 0.00125 296
1 0.356103 0.235441 0.0014233 0.00432229 0.0130769 -0.245757 0.00125 297
1 0.593585 0.799792 0.00183549 -0.00161198 -0.0110372 -0.0855501 0.00125 298
1 0.350019 0.227419 0.00149558 0.0102565 0.0111688 0.117277 0.00125 299
1 0.590803 0.659416 0.00155847 0.00766593 0.00741891 -0.235696 0.00125 300
1 0.351063 0.445333 0.00128895 0.00577946 -1.41594e-05 -0.232923 0.00125 301
1 0.860843 0.810852 0.00130634 0.00377119 0.0010723 0.168805 0.00125 302
1 0.229992 0.45719 0.00126732 -0.00271236 0.000387312 0.195013 0.00125 303
1 0.365447 0.481089 0.00163838 0.00637946 -0.00469703 0.0917104 0.00125 304
1 0.772454 0.139731 0.00158514 0.000115533 0.0044301 -0.228876 0.00125 305
1 0.306241 0.695161 0.00174858 -0.00577244 -0.00023389 0.101226 0.00125 306
1 0.486215 0.815725 0.00136491 0.00742415 0.0166837 0.16139 0.00125 307
1 0.723435 0.510246 0.00149723 0.000962945 0.00482718 0.223357 0.00125 308
1 0.451301 0.52631 0.00160686 0.00990725 -0.00508065 -0.233021 0.00125 309
1 0.0580642 0.0116712 0.00176634 0.000833817 -0.00441 0.114195 0.00125 310
1 0.474901 0.725101 0.00144549 0.00777444 -0.00771976 0.21751 0.00125 311
1 0.758046 0.521934 0.00156512 -0.0228189 -0.00731786 -0.0941191 0.00125 312
1 0.00681667 0.324548 0.00128124 -0.00275868 -0.00688097 -0.250019 0.00125 313
1 0.625694 0.462474 0.001479 -0.00329665 0.00343631 -0.0663229 0.00125 314
1 0.541884 0.799315 0.00136611 0.00297487 0.00130037 -0.237751 0.00125 315
1 0.813743 0.74907 0.00137964 -0.0328063 -0.0190638 0.221896 0.00125 316
1 0.625362 0.227057 0.00140889 -0.00521529 -0.000953085 0.173641 0.00125 317
1 0.448695 0.0606017 0.00141479 -0.000949367 0.00830342 0.130804 0.00125 318
1 0.216248 0.0910823 0.00135292 -4.92042e-05 -0.00130673 -0.237702 0.00125 319
1 0.0798027 0.229894 0.00123199 -0.0150284 0.00711303 0.109765 0.00125 320
1 0.486779 0.287527 0.00125892 -0.00129842 -0.0004274 -0.203104 0.00125 321
1 0.063125 0.0595268 0.00244801 -0.000373237 -0.00159092 -0.0373377 0.00125 322
1 0.0350091 0.585482 0.00162865 -7.15129e-05 -0.00188327 -0.0900986 0.00125 323
1 0.517401 0.0880039 0.00225229 0.000513587 -0.00580542 -0.140515 0.00125 324
1 0.394307 0.600052 0.00149494 0.00870383 -0.0327498 -0.194357 0.00125 325
1 0.675387 0.165404 0.00173815 0.00866178 -0.00434248 0.072782 0.00125 326
1 0.778536 0.691719 0.00140649 -0.00746845 0.0110448 -0.236956 0.00125 327
1 0.640247 0.478274 0.001455 -0.0019285 0.0102045 0.0903848 0.00125 328
1 0.42806 0.449446 0.00183805 -0.000254391 -0.000174884 -0.0849782 0.00125 329
1 0.303039 0.769583 0.00158502 0.00053134 -0.000225104 -0.0844951 0.00125 330
1 0.447436 0.191805 0.00129978 0.00378176 0.0121152 0.184667 0.00125 331
1 0.60491 0.351875 0.00130602 -0.022084 -0.00676693 0.176946 0.00125 332
1 0.857708 0.626581 0.00176404 -0.0144841 0.00055924 -0.175724 0.00125 333
1 0.533072 0.00696968 0.00133176 0.0128898 0.00877824 0.230123 0.00125 334
1 0.212151 0.530339 0.00168484 0.0175889 0.00768309 0.111692 0.00125 335
1 0.410514 0.114568 0.00162428 0.00460755 0.00733971 0.0519632 0.00125 336
1 0.125426 0.857179 0.00190734 0.00583683 0.00238347 -0.0714675 0.00125 337
1 0.0559783 0.463838 0.0023787 0.00133812 -0.00118271 -0.042196 0.00125 338
1 0.358816 0.121485 0.00172562 0.00939159 -0.000644728 -0.0830673 0.00125 339
1 0.802745 0.500735 0.00180376 -0.00417168 0.00199204 -0.216048 0.00125 340
1 0.0840436 0.750024 0.0018793 0.00121956 0.00194721 -0.0836506 0.00125 341
1 0.189822 0.299458 0.00127701 0.00522817 -0.00560626 -0.229198 0.00125 342
1 0.260964 0.822904 0.0014457 -0.00134453 0.00425671 -0.196499 0.00125 343
1 0.722222 0.64843 0.00143547 0.00443436 -0.00265825 -0.192908 0.00125 344
1 0.316032 0.641976 0.0015837 0.000485701 0.000731486 -0.0554197 0.00125 345
1 0.758866 0.664507 0.00149688 -0.00950874 0.000474368 0.113447 0.00125 346
1 0.36954 0.196223 0.00126029 -0.00485096 -0.00964169 0.210833 0.00125 347
1 0.326437 0.108786 0.00127568 -0.00230892 0.00321212 0.23995 0.00125 348
1 0.00116962 0.101244 0.00151581 0.0265539 -0.00180814 0.110518 0.00125 349
1 0.666429 0.635486 0.00156552 -0.00235423 -0.00199253 -0.185286 0.00125 350
1 0.532426 0.804591 0.00204309 -0.000279517 0.000337497 -0.183452 0.00125 351
1 0.286477 0.607007 0.00204438 0.00191176 -0.00735318 -0.0566829 0.00125 352
1 0.633057 0.546446 0.00137948 -0.00634457 -0.000472833 -0.219869 0.00125 353
1 0.551277 0.576984 0.00212465 0.00687949 0.00340887 -0.0518096 0.00125 354
1 0.687356 0.573537 0.00172717 -0.000473298 -3.74438e-05 0.178003 0.00125 355
1 0.55947 0.671894 0.00137393 -0.000933737 0.00286589 0.224577 0.00125 356
1 0.636599 0.346467 0.00218366 0.00400615 -0.00258846 -0.156666 0.00125 357
1 0.0382377 0.47352 0.00249957 -0.0440182 0.0291736 -0.0306915 0.00125 358
1 0.211363 0.17278 0.00149804 -0.0183697 -0.00327535 -0.19652 0.00125 359
1 0.383409 0.0067297 0.00222115 -0.00553524 -0.013138 0.0069758 0.00125 360
1 0.837527 0.551688 0.00133274 -0.0105212 -0.00227878 -0.241143 0.00125 361
1 0.235013 0.351531 0.00125852 0.00142089 0.00418398 -0.247346 0.00125 362
1 0.59229 0.812864 0.00131626 0.000731434 0.000546236 -0.235532 0.00125 363
1 0.338866 0.667854 0.00145778 -0.0157348 0.0171535 0.0856241 0.00125 364
1 0.0542705 0.794452 0.00142738 -0.00802084 0.00296124 -0.272914 0.00125 365
1 0.211611 0.47275 0.00145846 0.000733306 -0.00589918 0.218895 0.00125 366
1 0.530092 0.149661 0.00149758 -0.000515022 0.00106772 -0.239023 0.00125 367
1 0.159225 0.682774 0.00133169 -0.0128452 -0.00241814 -0.226273 0.00125 368
1 0.49904 0.246473 0.00126089 -0.0124776 0.00450879 0.24303 0.00125 369
1 0.0792839 0.644375 0.00137583 0.00122419 -0.00212747 -0.183736 0.00125 370
1 0.386249 0.211271 0.00142348 -0.00169835 -0.00360384 0.234339 0.00125 371
1 0.012004 0.231519 0.00124598 0.00183919 6.58043e-05 -0.30271 0.00125 372
1 0.475447 0.0299718 0.00129827 0.0015485 0.000665288 0.201249 0.00125 373
1 0.515264 0.845921 0.00123285 0.00257204 -0.00127298 -0.0720631 0.00125 374
1 0.656084 0.128129 0.00149501 -0.00316678 -0.00270291 -0.238895 0.00125 375
1 0.294162 0.137786 0.00157257 -0.0145659 0.0145025 -0.184829 0.00125 376
1 0.829883 0.0507091 0.00141911 -0.00355828 0.0079059 0.14244 0.00125 377
1 0.148878 0.140866 0.00156625 -0.000237778 0.00203804 0.0962708 0.00125 378
1 0.737998 0.207722 0.00128256 -0.00242472 -0.000622785 0.186821 0.00125 379
1 0.579216 0.32575 0.00231833 0.0089864 -0.00172247 0.0236512 0.00125 380
1 0.857361 0.24686 0.0015626 0.00130274 -0.0112633 -0.18602 0.00125 381
1 0.26121 0.612911 0.00124101 -0.00217627 -0.0016038 0.161314 0.00125 382
1 0.108988 0.691842 0.00140789 -0.00522403 0.00714521 0.13121 0.00125 383
1 0.100169 0.550608 0.0014992 -0.00214443 -0.00492921 0.116678 0.00125 384
1 0.650145 0.745059 0.00137187 -0.000974872 0.0136135 0.141382 0.00125 385
1 0.549452 0.349881 0.00147548 -0.00461234 -0.00468527 -0.238915 0.00125 386
1 0.117968 0.570255 0.00160768 0.000681059 -0.00123085 0.0786604 0.00125 387
1 0.634262 0.196177 0.00158492 -0.0184023 -0.00398868 -0.229386 0.00125 388
1 0.778368 0.0993816 0.00146995 -0.00364665 -0.0108348 -0.195282 0.00125 389
1 0.327448 0.17694 0.00140814 -0.00973827 -0.00428761 -0.200824 0.00125 390
1 0.568499 0.70886 0.00173702 0.0103687 0.00512398 0.171767 0.00125 391
1 0.72611 0.250203 0.00123911 -0.000158051 4.27927e-05 -0.225653 0.00125 392
1 0.217311 0.732945 0.00139579 0.00405319 -0.00394869 0.221384 0.00125 393
1 0.171284 0.642684 0.00165661 -0.0119786 0.00457658 -0.225943 0.00125 394
1 0.27847 0.291325 0.00140453 -0.00188687 0.011863 -0.239317 0.00125 395