ITEM: TIMESTEP
1000000
ITEM: NUMBER OF ATOMS
10000
ITEM: BOX BOUNDS pp pp ff
0.0000000000000000e+00 2.9770167874999998e-01
0.0000000000000000e+00 2.9770167874999998e-01
-1.2500000000000001e-02 1.2500000000000001e-02
ITEM: ATOMS type x y z vx vy vz radius id
1 0.100895 0.192388 0.00152017 -0.0255898 0.0215088 0.154589 0.00125 1
1 0.275212 0.0919521 0.00123936 -0.0104625 -0.063916 0.133193 0.00125 2
1 0.117416 0.0813145 0.00153189 0.0149923 -0.0362558 -0.19301 0.00125 3
1 0.00295885 0.284154 0.00122799 -0.0234318 -0.0161054 0.162672 0.00125 4
1 0.062819 0.0598753 0.00134476 0.026195 -0.0289378 0.195533 0.00125 5
1 0.0298268 0.297466 0.00179972 -0.0218401 -0.0229522 -0.0950777 0.00125 6
1 0.0576542 0.159426 0.0018275 -0.0403648 -0.0249369 -0.0907681 0.00125 7
1 0.289503 0.0887973 0.00141608 0.0407543 -0.0199228 0.147558 0.00125 8
1 0.0356985 0.0490771 0.00148202 0.000724591 -0.00110989 0.155136 0.00125 9
1 0.215361 0.227598 0.00169137 0.00293527 0.0254879 -0.191892 0.00125 10
1 0.245246 0.055788 0.00153209 -0.0109141 0.0075144 0.130377 0.00125 11
1 0.133639 0.152736 0.00130063 0.0279212 -0.0267778 -0.270513 0.00125 12
1 0.106443 0.203527 0.00148921 -0.0410335 0.0915902 -0.220658 0.00125 13
1 0.108324 0.0337195 0.00208251 -0.0296689 0.0308776 -0.0587754 0.00125 14
1 0.239023 0.187965 0.0012954 -0.0124022 0.0082819 0.216212 0.00125 15
1 0.205788 0.128497 0.00140773 -0.0188017 -0.0202681 -0.244461 0.00125 16
1 0.0371901 0.184649 0.00124534 -0.0142053 -0.00964552 -0.216953 0.00125 17
1 0.228443 0.156429 0.00193104 0.0657395 -0.0166893 -0.0450308 0.00125 18
1 0.274475 0.107208 0.00136023 -0.0332661 0.0249047 0.191721 0.00125 19
1 0.116615 0.0949139 0.00132731 0.0125096 0.0278922 0.174016 0.00125 20
1 0.254211 0.289265 0.00132821 0.0222392 -0.0235107 -0.207827 0.00125 21
1 0.287893 0.10945 0.00168195 0.0301564 0.03176 -0.220922 0.00125 22
1 0.206984 0.0824686 0.00232679 0.0800546 -0.0518159 -0.0177869 0.00125 23
1 0.213886 0.100487 0.0021064 -0.0107725 -0.0246333 -0.0615292 0.00125 24
1 0.0969473 0.242703 0.00124706 -0.0157766 -0.00365325 0.219255 0.00125 25
1 0.137132 0.239933 0.00151451 -0.0357541 -0.080497 -0.149521 0.00125 26
1 0.00858825 0.0414023 0.00160024 -0.000896044 -0.00357474 0.127443 0.00125 27
1 0.256999 0.289221 0.0014257 0.0258278 -0.0343472 0.123119 0.00125 28
1 0.166322 0.198133 0.00153885 -0.0910053 0.0106156 -0.194436 0.00125 29
1 0.207555 0.180315 0.00163311 0.0129611 0.0353546 -0.25257 0.00125 30
1 0.126474 0.181844 0.0015329 0.00430167 -0.0176329 0.195644 0.00125 31
1 0.0307367 0.164761 0.00250372 0.0570236 -0.0160663 0.0281769 0.00125 32
1 0.0725858 0.0101455 0.00139095 -0.0187421 -0.00704761 -0.179504 0.00125 33
1 0.269432 0.0986091 0.00139882 0.0142445 0.0163136 -0.112917 0.00125 34
1 0.229422 0.193803 0.00154359 6.40169e-05 0.0142617 -0.238236 0.00125 35
1 0.143383 0.0228316 0.00169735 -0.0328023 -0.00461676 -0.109481 0.00125 36
1 0.216291 0.202354 0.00190559 0.0114614 0.0459876 -0.179495 0.00125 37
1 0.173131 0.0832293 0.00217902 0.0154639 -0.039468 -0.0463115 0.00125 38
1 0.091064 0.248424 0.00135995 -0.0424203 -0.0281024 -0.132633 0.00125 39
1 0.172447 0.186627 0.00142753 -0.0829104 0.0432785 -0.0521319 0.00125 40
1 0.113506 0.0504117 0.00150625 0.0267731 -0.00344779 0.13845 0.00125 41
1 0.21359 0.130516 0.00166272 -0.0323723 -0.0562171 -0.123988 0.00125 42
1 0.0462361 0.24137 0.00130945 0.0193732 -0.0169992 0.150226 0.00125 43
1 0.120895 0.285113 0.0023125 0.0296103 -0.0247274 0.0203866 0.00125 44
1 0.183896 0.274321 0.00126269 0.00261967 -0.0197679 0.174493 0.00125 45
1 0.202178 0.213934 0.00129553 -0.0171967 0.0184719 -0.0410545 0.00125 46
1 0.0226097 0.0756253 0.00122792 -0.00321741 -0.0157251 0.0801413 0.00125 47
1 0.248632 0.225382 0.0015927 0.000258572 -0.0705595 -0.257938 0.00125 48
1 0.0616294 0.173873 0.00124334 -0.00362064 -0.00134172 0.118882 0.00125 49
1 0.164277 0.126536 0.00136162 0.0238047 0.00555095 0.220796 0.00125 50
1 0.192085 0.0368956 0.0013777 0.0359771 -0.0136425 0.189609 0.00125 51
1 0.0247119 0.214208 0.00226916 -0.0128416 0.00737893 -0.0166699 0.00125 52
1 0.0698916 0.00940709 0.00149038 0.0222014 0.0384904 0.173494 0.00125 53
1 0.29345 0.0366983 0.00163536 0.0231923 0.0448058 -0.0524106 0.00125 54
1 0.26173 0.18207 0.00242686 0.013592 0.0191417 -0.00435693 0.00125 55
1 0.0608039 0.0762723 0.00182028 -0.0440905 0.0543672 -0.0362569 0.00125 56
1 0.0357318 0.25298 0.0012829 0.0166289 -0.00642122 -0.00500919 0.00125 57
1 0.0695457 0.227226 0.00218242 0.0458531 0.0679339 -0.124453 0.00125 58
1 0.278861 0.139565 0.00187622 -0.0170574 0.0162059 -0.107053 0.00125 59
1 0.0548115 0.169713 0.00192641 0.0220995 0.030261 -0.0431377 0.00125 60
1 0.273034 0.285299 0.00123247 0.00211732 0.00249165 -0.0779182 0.00125 61
1 0.15798 0.113366 0.00240314 0.0387949 -0.0290566 -0.0161819 0.00125 62
1 0.240626 0.0301056 0.00146914 0.00449886 -0.0307802 0.232631 0.00125 63
1 0.110627 0.0483235 0.00133138 0.0101843 -0.0369831 -0.198203 0.00125 64
1 0.26851 0.254622 0.00169766 -0.0214575 -0.031369 -0.116201 0.00125 65
1 0.165075 0.20346 0.00132327 -0.0502111 0.0259872 -0.132283 0.00125 66
1 0.245924 0.200828 0.00156743 -0.0762637 -0.021709 -0.141656 0.00125 67
1 0.239712 0.0939026 0.00159621 -0.0167225 -0.0208394 -0.234443 0.00125 68
1 0.0962695 0.181225 0.00158843 0.00477561 0.027349 0.162371 0.00125 69
1 0.221399 0.183479 0.00139162 0.0420422 -0.00423559 -0.240122 0.00125 70
1 0.173072 0.104276 0.00139916 0.0391989 0.00768661 0.147292 0.00125 71
1 0.0109163 0.0531903 0.00167512 0.00415995 -0.0353888 -0.182332 0.00125 72
1 0.112541 0.162376 0.00244851 0.0101662 -0.0229422 -0.102756 0.00125 73
1 0.00960637 0.130614 0.00207348 -0.00455875 -0.00256516 -0.0656069 0.00125 74
1 0.129237 0.0610431 0.00166467 -0.00378961 -0.100459 -0.171898 0.00125 75
1 0.205339 0.0566554 0.00127331 0.0410352 -0.0244365 -0.0574635 0.00125 76
1 0.27567 0.279355 0.00160958 0.0384944 0.0119092 0.056231 0.00125 77
1 0.271046 0.00847609 0.00128344 -0.0067038 -0.0123256 0.0428174 0.00125 78
1 0.16726 0.0771109 0.00231945 -0.0147429 -0.0495465 0.012729 0.00125 79
1 0.236036 0.0515853 0.00125087 -0.0024761 0.000686017 -0.135047 0.00125 80
1 0.190637 0.128613 0.00153222 0.0535495 -0.0434305 0.04091 0.00125 81
1 0.0589373 0.204201 0.00127207 -0.0142293 0.000219975 0.204216 0.00125 82
1 0.232804 0.0233315 0.00129596 -0.0214102 -0.0820876 0.197049 0.00125 83
1 0.0130798 0.12299 0.00128053 -0.0455478 0.0920667 0.0101465 0.00125 84
1 0.0841432 0.125413 0.00124408 -0.011844 -0.00437279 -0.24272 0.00125 85
1 0.0943452 0.0753132 0.00231613 -0.0118697 -0.0309151 -0.151508 0.00125 86
1 0.27042 0.0436962 0.00141434 -0.0599916 -0.106209 0.120147 0.00125 87
1 0.0272197 0.139003 0.00251507 -0.000543421 -0.0417677 -0.0464932 0.00125 88
1 0.0462425 0.0911615 0.00193302 0.0022196 0.026196 -0.0135934 0.00125 89
1 0.200606 0.0206432 0.001285 0.00340042 0.0142929 -0.228063 0.00125 90
1 0.237453 0.097066 0.00129843 -0.00223852 -0.0449648 0.0384691 0.00125 91
1 0.00249855 0.119394 0.00193378 0.0647302 -0.0156082 -0.124236 0.00125 92
1 0.237109 0.0763797 0.00247404 -0.00239597 0.0305407 -0.0688867 0.00125 93
1 0.0479221 0.245485 0.00155799 0.0435709 0.00441586 0.0698187 0.00125 94
1 0.285526 0.0375372 0.00220959 -0.0352512 -0.030294 -0.154683 0.00125 95
1 0.165754 0.182711 0.00125573 0.0216514 0.0291684 -0.237114 0.00125 96
1 0.130657 0.24475 0.00142873 0.0145399 0.02538 0.190082 0.00125 97
1 0.204079 0.212265 0.0016604 0.036665 -0.0221833 -0.156672 0.00125 98
1 0.186342 0.290532 0.00200771 0.0151244 -0.0403166 -0.0708595 0.00125 99
1 0.143212 0.252276 0.00128146 0.00861915 0.0167773 -0.290792 0.00125 100
1 0.0674406 0.2535 0.00149134 0.0914595 0.00853639 -0.251848 0.00125 101
1 0.180653 0.090291 0.0013764 0.0511377 -0.0162825 -0.2121 0.00125 102
1 0.292698 0.196646 0.00135818 -0.0218459 0.00582766 -0.227187 0.00125 103
1 0.067427 0.0866914 0.00159313 -0.0255587 -0.033028 -0.162826 0.00125 104
1 0.0679342 0.187089 0.00225374 0.0359638 -0.0131353 -0.00893558 0.00125 105
1 0.191462 0.185763 0.00158201 -0.0122857 -0.0585635 -0.161685 0.00125 106
1 0.108152 0.0537118 0.00137814 0.0185507 0.0705672 -0.230658 0.00125 107
1 0.241096 0.0395979 0.00152269 0.00679031 0.0428019 -0.0861691 0.00125 108
1 0.198345 0.0254538 0.00131084 0.013663 0.0442665 -0.0983692 0.00125 109
1 0.101731 0.248873 0.00132963 -0.0400942 0.065656 0.149539 0.00125 110
1 0.258905 0.104239 0.00125285 -0.00255623 0.0265263 0.0250147 0.00125 111
1 0.292919 0.147559 0.00130313 -0.00124814 -0.00801188 -0.296079 0.00125 112
1 0.0931345 0.294193 0.00123012 -0.00802328 -0.00162462 -0.00902336 0.00125 113
1 0.243934 0.0755949 0.00141457 -0.00473527 0.00599212 0.176981 0.00125 114
1 0.115142 0.162504 0.0016085 -0.0235843 -0.0364421 -0.232908 0.00125 115
1 0.196699 0.199711 0.00200077 -0.0699844 0.0225644 -0.0825986 0.00125 116
1 0.226286 0.207368 0.00135643 -0.0260771 -0.0828416 0.173434 0.00125 117
1 0.268319 0.104401 0.00129861 -0.0127539 -0.0200091 0.0248116 0.00125 118
1 0.1506 0.230197 0.00127208 0.00939576 0.0218233 -0.156037 0.00125 119
1 0.0356413 0.156141 0.00239966 0.0292993 0.0239931 -0.0981809 0.00125 120
1 0.199894 0.101312 0.0014447 0.0174339 -0.0106865 0.106434 0.00125 121
1 0.191167 0.151351 0.00136527 0.00902287 -0.0385222 0.200155 0.00125 122
1 0.255484 0.201997 0.00127478 -0.0257331 0.0560196 -0.18033 0.00125 123
1 0.268389 0.0658108 0.0017409 0.00316693 -0.00917361 -0.087693 0.00125 124
1 0.113076 0.0382663 0.0020932 0.0170649 0.0332996 -0.0620727 0.00125 125
1 0.00012859 0.172428 0.00130404 -0.0253653 -0.0138991 -0.25478 0.00125 126
1 0.0354923 0.177806 0.00196894 0.0488078 0.0175383 -0.0563468 0.00125 127
1 0.178658 0.00598752 0.0015037 -0.00490918 -0.0111236 -0.101425 0.00125 128
1 0.0482146 0.239566 0.00191368 0.0147022 0.0462671 -0.0377433 0.00125 129
1 0.0204882 0.0608335 0.00171002 0.00106855 0.02107 -0.180556 0.00125 130
1 0.16761 0.124847 0.00146696 0.0334213 -0.0794156 -0.195623 0.00125 131
1 0.278777 0.272143 0.00140206 -0.0395487 -0.0160544 -0.14665 0.00125 132
1 0.0588176 0.221124 0.00125196 -0.0119999 -0.0177235 0.245961 0.00125 133
1 0.129718 0.0879118 0.00150694 -0.00625225 -0.0778123 -0.220785 0.00125 134
1 0.0461625 0.227893 0.00134621 -0.0186228 0.0260217 0.165296 0.00125 135
1 0.130981 0.063215 0.00220078 -0.036474 0.0017775 -0.0694807 0.00125 136
1 0.00424148 0.0243821 0.00150354 0.0209706 -0.00443352 0.170908 0.00125 137
1 0.0665531 0.0106337 0.00127107 0.0325529 0.000956044 0.101667 0.00125 138
1 0.208086 0.184817 0.00193388 -0.0439542 0.0165092 -0.132265 0.00125 139
1 0.112629 0.153356 0.00193019 -0.00794982 -0.0436744 -0.20351 0.00125 140
1 0.207954 0.144944 0.00234445 -0.00281529 0.0537232 -0.123483 0.00125 141
1 0.115646 0.0430932 0.00240788 -0.00131161 0.041236 -0.101784 0.00125 142
1 0.0982987 0.0511241 0.00134468 -0.0188097 0.0146244 0.0648088 0.00125 143
1 0.0663882 0.116529 0.00165107 -0.00669141 -0.029627 0.0956928 0.00125 144
1 0.118061 0.0658463 0.00148106 0.00982639 0.00486038 0.205304 0.00125 145
1 0.0103926 0.164811 0.00171201 0.021439 -0.00838284 -0.252775 0.00125 146
1 0.202266 0.231289 0.00160893 -0.00911691 -0.0310027 0.0393113 0.00125 147
1 0.0369454 0.100157 0.00132033 0.0222405 -0.00565242 -0.231374 0.00125 148
1 0.0133092 0.0223355 0.00165439 0.0562092 -0.0121936 -0.266722 0.00125 149
1 0.216449 0.162888 0.00148928 -0.027469 0.0198054 -0.25635 0.00125 150
1 0.0595417 0.124987 0.00241424 -0.00404228 0.0175794 -0.00052629 0.00125 151
1 0.117054 0.214726 0.00127427 -0.0727561 -0.0420885 -0.243276 0.00125 152
1 0.190361 0.0986888 0.00187992 0.019959 0.0323076 -0.0587284 0.00125 153
1 0.0630228 0.0742302 0.0016262 0.0141817 -0.00930193 -0.145366 0.00125 154
1 0.0240953 0.295344 0.00140915 -0.0616711 -0.0192861 -0.205252 0.00125 155
1 0.256033 0.267541 0.0014172 -0.0362147 -0.0590623 -0.113624 0.00125 156
1 0.240082 0.225364 0.00143004 -0.0812801 0.0898303 0.106128 0.00125 157
1 0.0356806 0.0231343 0.00133022 -0.0545431 0.0216207 0.158321 0.00125 158
1 0.0637107 0.0051795 0.00136911 -0.0208033 0.0134442 -0.298665 0.00125 159
1 0.259827 0.119903 0.00138868 -0.00855699 -0.0262707 -0.0930524 0.00125 160
1 0.0736477 0.276971 0.00162929 0.0367286 0.0154057 0.0805388 0.00125 161
1 0.0437704 0.0421693 0.00151469 0.00431881 -0.00524151 -0.263241 0.00125 162
1 0.171624 0.223828 0.00123101 0.0148523 -0.00442168 0.10437 0.00125 163
1 0.140288 0.223278 0.0013095 0.00571643 -0.0222398 -0.242947 0.00125 164
1 0.28443 0.151907 0.00210992 -0.0283522 -0.0154285 -0.0526424 0.00125 165
1 0.277363 0.274507 0.00220168 -0.0212298 0.0354414 -0.151533 0.00125 166
1 0.24439 0.104968 0.00137583 -0.0131281 0.00929536 -0.232023 0.00125 167
1 0.0365374 0.120385 0.00182875 0.00555683 0.0449081 -0.142337 0.00125 168
1 0.220439 0.0272129 0.0017954 -0.0895964 -0.0150283 -0.11414 0.00125 169
1 0.0872619 0.28596 0.00136636 -0.0612807 0.0277736 0.173313 0.00125 170
1 0.207369 0.118356 0.00226354 -0.00734169 -0.0406415 -0.106542 0.00125 171
1 0.236567 0.246991 0.00161332 0.0125486 -0.0144198 -0.236162 0.00125 172
1 0.129735 0.249466 0.00123351 0.0388794 -0.0466656 -0.0974136 0.00125 173
1 0.270939 0.0738961 0.00139636 -0.0537264 0.0454603 -0.108173 0.00125 174
1 0.0369851 0.270657 0.00229337 -0.0457834 0.0219269 -0.00184755 0.00125 175
1 0.040004 0.14666 0.00159774 -0.0594366 0.00516589 -0.170302 0.00125 176
1 0.129977 0.0770561 0.00186988 -0.0471797 -0.00963131 -0.158479 0.00125 177
1 0.0775242 0.0999349 0.00152184 -0.0304659 -0.00548687 0.155884 0.00125 178
1 0.246969 0.117023 0.00126931 0.00513381 0.025141 -0.0772625 0.00125 179
1 0.0389035 0.232944 0.00155533 0.0549895 -0.0146287 -0.0568467 0.00125 180
1 0.123391 0.241959 0.00129299 0.0280152 -0.0267424 0.207075 0.00125 181
1 0.29689 0.124603 0.0013772 0.0439631 0.020312 0.00574223 0.00125 182
1 0.0470671 0.119182 0.00137366 -0.071051 0.0142095 -0.143181 0.00125 183
1 0.104959 0.290774 0.00198009 -0.0150587 0.0944781 -0.174365 0.00125 184
1 0.161902 0.105919 0.00187784 0.0350056 0.0485617 -0.0826074 0.00125 185
1 0.215411 0.075475 0.00134088 0.0071289 0.0503641 0.0721582 0.00125 186
1 0.172356 0.0123108 0.00136915 -0.00957078 -0.0158617 0.223594 0.00125 187
1 0.132637 0.0125702 0.00129282 -0.00304425 0.0125674 -0.297616 0.00125 188
1 0.0408895 0.0630578 0.00125329 0.00148696 0.0162821 0.00620484 0.00125 189
1 0.248783 0.210638 0.00132127 -0.0350204 -0.019327 0.167551 0.00125 190
1 0.0398959 0.239547 0.00145592 0.0524864 -0.0390834 -0.196483 0.00125 191
1 0.148299 0.0253365 0.00201757 0.0667563 0.0617658 -0.0958212 0.00125 192
1 0.0357313 0.0688347 0.00217761 0.0249588 0.00953979 -0.0234726 0.00125 193
1 0.0437246 0.116438 0.00123391 0.0155469 0.0192737 0.143693 0.00125 194
1 0.13938 0.197171 0.00155787 0.020441 0.0243312 -0.207094 0.00125 195
1 0.28947 0.0143166 0.00144388 -0.0129322 0.0350733 -0.215276 0.00125 196
1 0.16325 0.231524 0.00149541 -0.0810096 -0.0161755 -0.201909 0.00125 197
1 0.183917 0.270846 0.00130466 -0.0157991 0.0387838 -0.213446 0.00125 198
1 0.0953752 0.0615533 0.00183557 -0.0256354 -0.0666325 -0.0563484 0.00125 199
1 0.162461 0.243217 0.0013627 -0.0521718 -0.073475 -0.242727 0.00125 200
1 0.294907 0.266655 0.00135101 0.00678647 0.00929185 -0.222587 0.00125 201
1 0.278864 0.102644 0.00136774 -0.00716166 0.00918058 0.167566 0.00125 202
1 0.128909 0.260268 0.00153965 0.0320235 0.0313193 0.134476 0.00125 203
1 0.131089 0.0721331 0.00195113 -0.0140273 -0.00655107 -0.0837412 0.00125 204
1 0.248582 0.175377 0.0018069 0.0209455 -0.00301508 -0.197273 0.00125 205
1 0.0941249 0.0645447 0.00125698 -0.0837055 0.0557394 -0.229733 0.00125 206
1 0.135885 0.176661 0.00231805 0.0471183 -0.0350844 -0.027873 0.00125 207
1 0.0367788 0.187889 0.00183149 -0.00610717 -0.037875 -0.214564 0.00125 208
1 0.248848 0.133436 0.00182223 0.0105066 0.0724612 -0.149166 0.00125 209
1 0.151163 0.0201251 0.00143934 0.0253478 -0.0235169 -0.221335 0.00125 210
1 0.14664 0.0806628 0.00162431 -0.00316821 0.00157145 0.115864 0.00125 211
1 0.240083 0.0472455 0.00248273 -0.0846625 -0.00408109 -0.0224418 0.00125 212
1 0.0132393 0.153547 0.00148724 -0.00233143 -0.0196496 -0.194301 0.00125 213
1 0.291639 0.0901438 0.00129234 -0.0184758 0.0043194 0.157239 0.00125 214
1 0.251768 0.296765 0.00172229 -0.0243671 0.0173642 -0.21814 0.00125 215
1 0.144708 0.158511 0.00138294 0.0112137 -0.046199 -0.246413 0.00125 216
1 0.0621369 0.244047 0.00170794 0.0152037 0.0548176 -0.229684 0.00125 217
1 0.23545 0.17248 0.00143835 -0.0411591 0.00966955 0.206797 0.00125 218
1 0.0664318 0.23969 0.001372 0.0271314 -0.0379368 -0.250324 0.00125 219
1 0.0755822 0.0702084 0.00168257 -0.0565558 -0.0380665 -0.232261 0.00125 220
1 0.160297 0.261308 0.00208738 0.0151677 -0.0606021 -0.0493767 0.00125 221
1 0.119907 0.230309 0.00222115 -0.00189518 0.0358272 -0.0342192 0.00125 222
1 0.100684 0.150683 0.00122779 0.0213998 -0.0209895 0.164737 0.00125 223
1 0.0615048 0.0528056 0.0012653 -0.0188962 0.0146435 -0.220603 0.00125 224
1 0.0382442 0.0737417 0.00239447 0.0122106 0.0343527 0.0428743 0.00125 225
1 0.072481 0.295629 0.00237435 0.00503405 0.00181623 -0.133237 0.00125 226
1 0.256033 0.28645 0.00122768 -0.0139027 -0.0234357 -0.126207 0.00125 227
1 0.277335 0.0225617 0.00178246 0.0328527 -0.0519491 -0.154649 0.00125 228
1 0.0144129 0.0978598 0.00125596 -0.0554162 -0.0370414 0.207441 0.00125 229
1 0.0613258 0.0306398 0.00125967 0.00327792 0.0374457 -0.226232 0.00125 230
1 0.0569096 0.198098 0.00151999 -0.0314548 -0.00589255 0.224027 0.00125 231
1 0.2123 0.155322 0.00135349 0.0292055 0.000657282 0.187138 0.00125 232
1 0.213818 0.0535875 0.00156839 0.00898403 0.040554 -0.162579 0.00125 233
1 0.0564165 0.272527 0.0017534 0.0301001 -0.0184638 -0.107542 0.00125 234
1 0.257948 0.250521 0.00241234 0.0120644 -0.0485603 -0.0154741 0.00125 235
1 0.177317 0.280081 0.00130533 -0.0281235 -0.0382872 0.237739 0.00125 236
1 0.190655 0.228547 0.00170056 0.0264174 0.0336285 -0.18755 0.00125 237
1 0.183169 0.0339392 0.00147607 -0.0163047 -0.00688274 -0.114469 0.00125 238
1 0.216502 0.186315 0.0013427 -0.0787908 0.0293669 0.186848 0.00125 239
1 0.0805354 0.198912 0.00128411 -0.0397553 -0.049443 0.166492 0.00125 240
1 0.227489 0.217996 0.00157497 -0.0375387 -0.0110794 -0.228516 0.00125 241
1 0.278208 0.00627669 0.00168645 -0.0163952 -0.119761 -0.0758426 0.00125 242
1 0.0951529 0.210571 0.00157334 0.0669255 -0.00841782 -0.237634 0.00125 243
1 0.146193 0.258808 0.00167529 0.0193142 0.0221518 -0.196256 0.00125 244
1 0.194479 0.261906 0.00133376 0.0102325 -0.00356316 0.0167409 0.00125 245
1 0.261934 0.198581 0.00182201 0.102875 0.0142052 -0.189434 0.00125 246
1 0.0508197 0.104458 0.00122927 -0.0203552 -0.0407892 0.00374033 0.00125 247
1 0.0752969 0.0509833 0.00126219 0.00751862 -0.0261131 0.0439264 0.00125 248
1 0.130209 0.0118141 0.00123301 0.0141785 0.00540235 0.104516 0.00125 249
1 0.275356 0.257516 0.00138143 -0.00542227 0.0514877 0.156859 0.00125 250
1 0.27314 0.0383637 0.00149848 0.00859803 0.00457727 0.147649 0.00125 251
1 0.186049 0.111337 0.0014005 0.00585422 0.0189153 0.179084 0.00125 252
1 0.267832 0.195809 0.00246229 0.0058022 -0.0375164 -0.024277 0.00125 253
1 0.1208 0.0918951 0.00160838 -0.0258506 0.0047951 -0.0899828 0.00125 254
1 0.0338195 0.257626 0.00141087 0.0313568 0.0762575 -0.222692 0.00125 255
1 0.219178 0.0139608 0.00152963 0.0286073 0.00308172 0.200117 0.00125 256
1 0.218262 0.179402 0.00215035 0.0384397 -0.0299577 -0.180658 0.00125 257
1 0.219439 0.227575 0.00185468 0.00326852 0.0342343 -0.0942482 0.00125 258
1 0.171326 0.213044 0.00147424 0.0191441 0.013354 0.198441 0.00125 259
1 0.0116676 0.0708804 0.00131534 0.139502 -0.0275516 -0.256544 0.00125 260
1 0.10379 0.0369921 0.00182227 -0.0424553 -0.00283172 -0.224968 0.00125 261
1 0.11544 0.13782 0.00162519 -0.0172413 -0.0583685 -0.16195 0.00125 262
1 0.20806 0.285808 0.00151984 0.0497284 -0.0397926 -0.246781 0.00125 263
1 0.266288 0.165376 0.00148533 0.0799711 0.102307 0.0127606 0.00125 264
1 0.285204 0.258737 0.0013482 -0.0615397 -0.0149572 0.105886 0.00125 265
1 0.285142 0.00666551 0.00155052 0.0157454 0.0202937 0.0753649 0.00125 266
1 0.257497 0.0526984 0.00181568 0.0585535 0.0113646 -0.191387 0.00125 267
1 0.0835196 0.107124 0.00235425 0.012839 -0.00917894 -0.032316 0.00125 268
1 0.280896 0.269609 0.00163944 -0.00741324 -0.0295263 -0.23026 0.00125 269
1 0.073279 0.106889 0.00140874 0.0291147 -0.0252857 0.0900233 0.00125 270
1 0.07422 0.0400958 0.0012419 -0.002495 -0.0144702 0.233613 0.00125 271
1 0.0618994 0.0249504 0.00212159 0.00499064 0.0060879 -0.179535 0.00125 272
1 0.00549194 0.289208 0.00133412 -0.0236896 -0.0264152 0.180331 0.00125 273
1 0.0223403 0.0863054 0.00127719 0.00344659 0.00715635 0.248829 0.00125 274
1 0.194122 0.156879 0.00123659 0.0320926 0.0426434 0.081872 0.00125 275
1 0.136486 0.0949649 0.00225946 0.00896961 -0.0473908 -0.13554 0.00125 276
1 0.234703 0.0210185 0.00134385 -0.00701876 -0.0250945 0.0272818 0.00125 277
1 0.11277 0.137957 0.00132467 -0.0102855 0.00178234 -0.246404 0.00125 278
1 0.141939 0.108478 0.00215592 -0.00833029 -0.0268423 -0.0440172 0.00125 279
1 0.119799 0.190349 0.00133108 -0.0255212 0.045228 0.0264036 0.00125 280
1 0.0501297 0.227526 0.00159928 -0.0194684 -0.0181935 0.183655 0.00125 281
1 0.21651 0.0671532 0.001767 -0.00896052 0.00181314 -0.230669 0.00125 282
1 0.154394 0.250234 0.00138701 0.00854111 0.0152905 0.159388 0.00125 283
1 0.210488 0.0228642 0.00140066 -0.0125717 -0.0197415 0.120324 0.00125 284
1 0.244337 0.0680313 0.00181394 -0.0373869 0.00184056 -0.163224 0.00125 285
1 0.23704 0.145003 0.00146186 0.0486565 0.0101591 -0.0552509 0.00125 286
1 0.258943 0.129988 0.00186022 -0.0322957 -0.0473906 -0.180306 0.00125 287
1 0.094011 0.109702 0.00172382 -0.0356451 -0.0404241 -0.177511 0.00125 288
1 0.126239 0.28458 0.00212374 -0.0206985 -0.0206219 -0.0537683 0.00125 289
1 0.191051 0.118956 0.00150073 0.0315277 0.0473963 -0.213478 0.00125 290
1 0.241093 0.0127568 0.00177508 -0.00925618 0.0370977 0.105928 0.00125 291
1 0.275361 0.265108 0.00144489 -0.0343035 0.00519063 0.155219 0.00125 292
1 0.223803 0.172469 0.00136157 -0.0188018 0.0613128 -0.098293 0.00125 293
1 0.294966 0.122406 0.00171856 0.0310902 0.0371306 0.0461908 0.00125 294
1 0.172634 0.151982 0.00133028 -0.0611135 0.0937943 0.101855 0.00125 295
1 0.199952 0.0857071 0.00135456 -0.0142503 0.0134938 0.0994934 0.00125 296
1 0.00368818 0.241696 0.00155223 -0.0166082 0.00799263 -0.144158 0.00125 297
1 0.0763144 0.0953889 0.00167832 -0.00597758 0.011709 0.148902 0.00125 298
1 0.046609 0.155478 0.00132929 -0.0535243 -0.0104928 -0.240254 0.00125 299
1 0.174721 0.0110194 0.00142859 -0.04143 0.0731582 0.0722501 0.00125 300
1 0.0523278 0.109921 0.00205639 0.00106785 -0.000255971 -0.109214 0.00125 301
1 0.0187345 0.293648 0.00127037 0.0173344 0.0153019 -0.306272 0.00125 302
1 0.278337 0.0678915 0.00144032 -0.0351359 -0.0157088 -0.145226 0.00125 303
1 0.281785 0.0785883 0.00131592 -0.0180452 0.0184289 0.19303 0.00125 304
1 0.0980414 0.279724 0.00242618 0.0263993 0.00958523 -0.0799092 0.00125 305
1 0.0445185 0.262765 0.00225009 0.0415332 -0.0511739 -0.14304 0.00125 306
1 0.246551 0.289895 0.0018566 -0.0168013 0.0645815 -0.184658 0.00125 307
1 0.015195 0.135622 0.0013604 0.00391129 -0.0469559 0.0309505 0.00125 308
1 0.181201 0.268965 0.00129615 -0.0165139 0.0124267 0.255531 0.00125 309
1 0.284512 0.293658 0.00245194 -0.0260172 -0.0161818 -0.029106 0.00125 310
1 0.275143 0.261332 0.00157751 -0.0394232 -0.00448672 -0.239256 0.00125 311
1 0.161231 0.12503 0.00221754 0.0151594 0.00369027 -0.0237234 0.00125 312
1 0.05671 0.128408 0.0013303 -0.0192816 -0.010515 0.183094 0.00125 313
1 0.18905 0.199723 0.00129877 0.0210858 0.0221269 0.182574 0.00125 314
1 0.103666 0.005027 0.00165477 0.0405073 -0.032867 -0.190358 0.00125 315
1 0.0520766 0.290729 0.00150654 -0.00893381 -0.00921125 -0.233343 0.00125 316
1 0.0541036 0.282095 0.00194055 0.0114058 0.0306518 -0.0465668 0.00125 317
1 0.0117999 0.234487 0.00163846 0.0213455 0.0322005 -0.213411 0.00125 318
1 0.189433 0.162499 0.0013243 -0.0630031 0.0190534 0.182664 0.00125 319
1 0.0666186 0.111191 0.00251079 0.00881224 -0.00896636 -0.0594972 0.00125 320
1 0.295289 0.00452005 0.00233167 0.00824853 0.027428 -0.0634969 0.00125 321
1 0.126307 0.200722 0.00138562 0.00825784 0.0469964 0.124861 0.00125 322
1 0.0881504 0.119579 0.00245707 -0.00968833 0.00105278 -0.0172598 0.00125 323
1 0.200093 0.209667 0.00201366 -0.022357 -0.0390239 -0.119447 0.00125 324
1 0.0841254 0.242602 0.0014429 0.0690954 -0.00970001 0.134795 0.00125 325
1 0.292325 0.144957 0.0013996 0.00710255 -0.0109603 0.144562 0.00125 326
1 0.102473 0.258341 0.00138387 0.071916 -0.0586926 -0.00585479 0.00125 327
1 0.0464809 0.0505008 0.00142996 0.137146 0.0745043 0.00503712 0.00125 328
1 0.149926 0.236737 0.00131052 0.012656 0.0361766 -0.222312 0.00125 329
1 0.185144 0.182888 0.00165007 0.0803855 0.0577637 -0.135214 0.00125 330
1 0.12974 0.17755 0.00153338 0.0495112 0.00298281 -0.174629 0.00125 331
1 0.161415 0.0196027 0.00131145 0.0753544 -0.0398061 0.106371 0.00125 332
1 0.0119853 0.161463 0.00144791 -0.0114347 0.0137215 -0.0507605 0.00125 333
1 0.00084169 0.190965 0.00163728 -0.0470428 -0.0319601 -0.179479 0.00125 334
1 0.238126 0.11783 0.00149041 -0.0590524 -0.0714133 -0.0248428 0.00125 335
1 0.293954 0.19416 0.00134748 0.0860562 0.0656978 0.0782461 0.00125 336
1 0.109519 0.0458665 0.00188692 -0.017872 -0.0617455 -0.0695461 0.00125 337
1 0.196756 0.236078 0.00148772 0.0284323 -0.0231868 0.112503 0.00125 338
1 0.293107 0.141002 0.00169923 0.0162857 -0.0194202 0.106053 0.00125 339
1 0.126165 0.295711 0.00142399 -0.0482529 -0.0204312 -0.251374 0.00125 340
1 0.029365 0.194474 0.00215262 -0.0118175 -0.026184 -0.182041 0.00125 341
1 0.0221803 0.0990055 0.00126462 -0.0720796 -0.0381801 -0.141483 0.00125 342
1 0.210297 0.182898 0.0017943 0.0304956 0.0191738 -0.24732 0.00125 343
1 0.0501751 0.250206 0.00160281 -0.0322881 0.0116524 0.0972643 0.00125 344
1 0.0430583 0.142494 0.0020947 -0.00483571 -0.0683493 -0.161866 0.00125 345
1 0.288337 0.273797 0.00146574 -0.0431796 0.00633112 -0.122049 0.00125 346
1 0.195534 0.122 0.00148881 -0.0506868 -0.0309677 0.191319 0.00125 347
1 0.225169 0.143899 0.00153169 0.00575237 -0.0122589 -0.234639 0.00125 348
1 0.0967653 0.176153 0.00157637 -0.0223409 0.0270283 -0.209537 0.00125 349
1 0.267617 0.243581 0.00184633 -0.0399809 0.0135758 -0.0488534 0.00125 350
1 0.276136 0.231741 0.00221443 0.0809887 0.0324096 -0.0447505 0.00125 351
1 0.18823 0.247333 0.00211538 0.0130981 -0.152128 -0.149449 0.00125 352
1 0.295875 0.0198163 0.00138611 0.00461516 0.0539831 0.138322 0.00125 353
1 0.14029 0.180614 0.00137249 -0.00158902 0.0651561 -0.117976 0.00125 354
1 0.184734 0.132806 0.00182774 0.0630874 0.0323098 -0.0496762 0.00125 355
1 0.0760982 0.228489 0.00146944 0.00913337 -0.0106033 -0.216208 0.00125 356
1 0.252648 0.218847 0.00189869 0.00765529 -0.0673522 -0.0538614 0.00125 357
1 0.116776 0.203803 0.0012388 5.22645e-05 0.0240953 0.187929 0.00125 358
1 0.240573 0.0913854 0.00232102 -0.032038 -0.00599623 -0.0424638 0.00125 359
1 0.0522756 0.276832 0.00148096 -0.0489802 -0.0241006 0.125032 0.00125 360
1 0.210175 0.216673 0.00166483 -0.00863109 0.0287473 -0.0994131 0.00125 361
1 0.0800316 0.175614 0.00150789 -0.0137875 0.0495608 -0.136164 0.00125 362
1 0.0237615 0.122846 0.0014826 -0.00306117 -0.0151854 -0.0695221 0.00125 363
1 0.201684 0.162757 0.00138809 -0.0696225 0.015339 -0.274668 0.00125 364
1 0.121851 0.217016 0.00231885 0.0144345 -0.0140782 -0.0368579 0.00125 365
1 0.00774598 0.176151 0.00164911 -0.00279193 0.0238889 0.128826 0.00125 366
1 0.103816 0.131929 0.00136799 -0.00180495 -0.0289453 0.132546 0.00125 367
1 0.207322 0.0722785 0.0021348 0.0528521 0.0604721 -0.162468 0.00125 368
1 0.20898 0.218889 0.00142947 0.0493571 0.0938007 0.0249061 0.00125 369
1 0.236248 0.0234728 0.00169548 -0.0876932 0.00585558 -0.077414 0.00125 370
1 0.164587 0.222483 0.00152988 -0.000564069 -0.0287656 0.0916744 0.00125 371
1 0.241157 0.203238 0.00227397 -0.039789 0.00871342 -0.0643978 0.00125 372
1 0.216457 0.00470884 0.00125078 -0.016805 -0.023377 -0.241597 0.00125 373
1 0.0675303 0.0161674 0.0012653 -0.000251644 0.0142544 -0.258173 0.00125 374
1 0.172199 0.247766 0.00197282 -0.00507282 0.00433629 -0.148691 0.00125 375
1 0.18212 0.20842 0.00129523 -0.0358364 0.0401614 -0.215529 0.00125 376
1 0.219769 0.0542427 0.00205352 0.0420018 -0.0308639 -0.00714616 0.00125 377
1 0.241846 0.103772 0.00142218 -0.00626649 0.00464026 -0.154625 0.00125 378
1 0.100439 0.0270087 0.00134057 0.0104803 -0.0278954 0.258646 0.00125 379
1 0.0177038 0.0224053 0.00154015 0.0440026 -0.0231636 -0.17033 0.00125 380
1 0.144783 0.216413 0.00147462 0.0326923 -0.00855492 0.0953407 0.00125 381
1 0.0137932 0.0892941 0.00146751 0.0164673 0.0254301 -0.239699 0.00125 382
1 0.148079 0.244124 0.00133322 0.0377884 -0.0139677 -0.106017 0.00125 383
1 0.225359 0.0820986 0.00223318 0.0799209 0.020617 -0.141768 0.00125 384
1 0.0383368 0.0697717 0.00137623 -0.0280734 -0.0208718 -0.11058 0.00125 385
1 0.143701 0.0512392 0.00239999 -0.0126572 -0.0146397 -0.0416722 0.00125 386
1 0.0705737 0.256443 0.0022665 0.00829127 0.0199662 -0.0630186 0.00125 387
1 0.144444 0.23417 0.00245718 0.0297065 -0.0810815 -0.0449745 0.00125 388
1 0.0269828 0.296156 0.00163692 0.0331738 -0.0623076 -0.244109 0.00125 389
1 0.229689 0.0426203 0.0016175 0.0435026 -0.0402655 0.205328 0.00125 390
1 0.198815 0.27859 0.00126731 -0.0156503 -0.0185031 0.25942 0.00125 391
1 0.042294 0.149305 0.00128236 0.0252331 0.037035 0.206267 0.00125 392
1 0.295645 0.0475086 0.00146493 -0.0125613 -0.0208693 -0.0945688 0.00125 393
1 0.0417628 0.0481984 0.00209299 0.0311819 -0.0293634 -0.107145 0.00125 394
1 0.173017 0.00898493 0.00159246 0.0420133 -0.059049 0.115754 0.00125 395
1 0.144131 0.265053 0.00126963 0.027214 0.00237604 0.21428 0.00125 396
1 0.00405025 0.08644 0.0013206 -0.0130651 0.0121923 0.231738 0.00125 397
1 0.162691 0.12034 0.00156199 -0.0220074 0.00482293 0.159078 0.00125 398
1 0.0431271 0.258723 0.00131243 -0.0244096 -0.0128158 0.177958 0.00125 399
1 0.156412 0.265768 0.00124809 -0.0609964 -0.0243398 -0.13459 0.00125 400