ITEM: TIMESTEP
1000000
ITEM: NUMBER OF ATOMS
10000
ITEM: BOX BOUNDS pp pp ff
0.0000000000000000e+00 4.0208801375000003e-01
0.0000000000000000e+00 4.0208801375000003e-01
-1.2500000000000001e-02 1.2500000000000001e-02
ITEM: ATOMS type x y z vx vy vz radius id
1 0.127019 0.261339 0.00153608 0.0239911 0.0129259 0.107666 0.00125 1
1 0.253216 0.320466 0.00146946 -0.0134465 0.00337566 0.0884204 0.00125 2
1 0.134553 0.0618732 0.0013348 0.0193541 -0.00559856 0.173801 0.00125 3
1 0.157259 0.0655186 0.00249391 0.0145948 -0.00294731 -0.0221255 0.00125 4
1 0.169577 0.377192 0.00149064 -0.0022171 0.00945106 -0.105869 0.00125 5
1 0.203169 0.183833 0.00161744 0.0106689 -0.0127483 -0.250282 0.00125 6
1 0.0109576 0.101981 0.00142819 0.0478305 -0.0118001 0.139658 0.00125 7
1 0.000879077 0.0500947 0.00180735 -0.000409482 -0.00992169 -0.149759 0.00125 8
1 0.17924 0.0241409 0.00134087 -0.0213409 -0.000132307 0.189071 0.00125 9
1 0.294932 0.167334 0.00135884 0.000487473 -0.0264468 0.0370117 0.00125 10
1 0.00781042 0.295648 0.00166641 -0.0143059 0.00459456 -0.0544714 0.00125 11
1 0.0189945 0.338754 0.00146256 0.00664618 -0.000799854 -0.290879 0.00125 12
1 0.336387 0.0460423 0.00124147 0.0150034 -0.00843173 0.191159 0.00125 13
1 0.259411 0.243254 0.0015967 0.0602428 0.00875396 0.170108 0.00125 14
1 0.13257 0.175061 0.00130326 0.0315817 0.0249543 -0.231505 0.00125 15
1 0.170955 0.228312 0.00155005 0.0791133 -0.0201566 -0.170691 0.00125 16
1 0.0694927 0.358628 0.00134177 -0.020235 0.00659511 -0.315526 0.00125 17
1 0.330689 0.132429 0.00161089 0.0135728 -0.00684591 0.0511561 0.00125 18
1 0.355594 0.335466 0.0012373 0.00635647 -0.0195115 -0.138631 0.00125 19
1 0.175769 0.326763 0.00138315 3.19776e-05 0.00116577 -0.312351 0.00125 20
1 0.290541 0.295027 0.0022501 -0.00787658 -0.0119053 -0.0536417 0.00125 21
1 0.26802 0.231209 0.00191554 0.0070149 0.00600529 -0.0418022 0.00125 22
1 0.337183 0.328485 0.00144363 0.0165379 0.00696254 -0.238834 0.00125 23
1 0.379328 0.166572 0.00186157 0.00857756 -0.00146107 -0.154541 0.00125 24
1 0.0910525 0.128044 0.00188486 0.0154675 0.00525939 -0.203453 0.00125 25
1 0.0075318 0.255245 0.00125129 0.00315566 -0.00819126 -0.244454 0.00125 26
1 0.14012 0.391959 0.00245023 -0.00101364 0.00692889 -0.0391548 0.00125 27
1 0.0759767 0.220394 0.00147032 0.0151883 0.0306252 0.157241 0.00125 28
1 0.358074 0.402009 0.00139719 0.0174086 -0.0172548 0.220069 0.00125 29
1 0.0687414 0.240115 0.00133209 0.0121484 -0.00970362 0.228382 0.00125 30
1 0.292051 0.161083 0.00140561 0.0125929 0.0061019 0.238542 0.00125 31
1 0.231328 0.324982 0.00152866 -0.0150872 -0.00912692 0.121675 0.00125 32
1 0.0802077 0.115709 0.00242268 0.0044885 -0.00137866 0.000521831 0.00125 33
1 0.284364 0.168098 0.00223416 -0.00835908 -0.00481768 -0.149515 0.00125 34
1 0.169474 0.101319 0.00128983 -0.0223629 -0.00603309 0.18368 0.00125 35
1 0.0507004 0.282416 0.00138545 0.00693468 -0.021785 0.18044 0.00125 36
1 0.0313836 0.32741 0.00160391 -0.00505205 0.0034112 -0.229455 0.00125 37
1 0.360302 0.0894011 0.00147859 -0.00460811 -0.010131 -0.231952 0.00125 38
1 0.290778 0.19388 0.00147601 -0.0418031 -0.0300643 0.135187 0.00125 39
1 0.201171 0.0467886 0.00157497 -0.00598848 0.0273371 -0.235407 0.00125 40
1 0.300125 0.223117 0.00144672 0.031078 -0.0129225 0.153233 0.00125 41
1 0.387406 0.262176 0.00134794 -0.00870034 -0.0132532 0.230381 0.00125 42
1 0.0646912 0.156624 0.00210343 -0.0285132 0.00679848 0.00720463 0.00125 43
1 0.379006 0.318714 0.00128089 -0.0344169 0.0273709 -0.231975 0.00125 44
1 0.124832 0.331055 0.00131175 -0.00179529 -0.0248991 0.183062 0.00125 45
1 0.0656266 0.330818 0.00194048 -0.000720305 -0.0190085 -0.0850963 0.00125 46
1 0.0317743 0.250633 0.00207282 -0.011668 0.0288141 -0.0745115 0.00125 47
1 0.122981 0.401453 0.00175667 0.0038218 -0.00240029 0.140706 0.00125 48
1 0.130766 0.0530648 0.00163669 0.025552 0.0185655 0.146491 0.00125 49
1 0.0810927 0.32017 0.00128712 -0.00188269 -0.0118259 -0.191439 0.00125 50
1 0.386098 0.337348 0.00127241 0.00175 -0.016629 0.208418 0.00125 51
1 0.351748 0.0178401 0.00151865 0.00332911 0.0201263 0.107208 0.00125 52
1 0.228476 0.0484101 0.0014852 -0.0169313 -0.0121619 -0.233936 0.00125 53
1 0.230437 0.349356 0.00194687 -0.000643389 -0.0156002 -0.232974 0.00125 54
1 0.27564 0.388904 0.00135533 0.00800322 0.0115938 0.0173667 0.00125 55
1 0.119058 0.0261097 0.00152906 -0.000614229 -0.00894814 -0.231632 0.00125 56
1 0.163203 0.258355 0.00218437 -0.00845459 -0.00659604 -0.0146589 0.00125 57
1 0.318974 0.285089 0.0014199 -0.00123192 0.0126465 -0.236388 0.00125 58
1 0.262303 0.089105 0.00144826 -0.0164757 -0.0311275 0.214011 0.00125 59
1 0.150552 0.338938 0.00172182 0.0179675 -0.00332343 0.105774 0.00125 60
1 0.239241 0.142478 0.00148249 0.00929896 0.0454952 -0.200673 0.00125 61
1 0.24446 0.390403 0.00125936 0.0127665 -0.00396391 -0.228947 0.00125 62
1 0.0527925 0.172827 0.00202536 -0.0154517 -0.0150829 -0.186323 0.00125 63
1 0.174008 0.145557 0.00185575 -0.0019173 -0.00867039 -0.210799 0.00125 64
1 0.203284 0.0702418 0.00150062 -0.0130204 -0.0286627 -0.238597 0.00125 65
1 0.105107 0.224689 0.00165467 -0.00798124 0.0262243 -0.273091 0.00125 66
1 0.0727479 0.224485 0.00131357 0.0317423 0.0255139 -0.311255 0.00125 67
1 0.0497946 0.332046 0.00140972 0.00152018 -0.0251574 0.145747 0.00125 68
1 0.0924657 0.310895 0.00123006 0.000102094 -0.00337064 -0.152177 0.00125 69
1 0.0257218 0.12204 0.00157398 0.0014221 0.000880121 -0.180576 0.00125 70
1 0.235476 0.0790164 0.00127502 0.00604657 0.00707306 -0.224164 0.00125 71
1 0.0458974 0.385261 0.00152202 -0.0130718 -0.016691 0.0542505 0.00125 72
1 0.390996 0.0545435 0.00166521 -0.00263024 -0.00762245 0.0970717 0.00125 73
1 0.226511 0.0165271 0.00129715 -0.00313016 0.0109355 0.182885 0.00125 74
1 0.0633146 0.0237629 0.00182841 -0.0262234 -0.00867894 -0.203679 0.00125 75
1 0.311679 0.119596 0.00175704 0.0012345 -0.00896664 -0.085757 0.00125 76
1 0.287082 0.120027 0.00133254 -0.0139573 -0.00370672 0.149333 0.00125 77
1 0.283683 0.299036 0.00154777 0.0152334 0.0141168 -0.197757 0.00125 78
1 0.344384 0.131144 0.00214331 0.00231979 0.0135354 -0.0378813 0.00125 79
1 0.302326 0.118564 0.00137598 0.00557405 0.0193792 -0.252175 0.00125 80
1 0.388174 0.296688 0.00182269 0.0273799 0.0188463 -0.0747778 0.00125 81
1 0.365746 0.0754783 0.00145216 0.00856086 -0.0147323 -0.238712 0.00125 82
1 0.220249 0.121259 0.00129664 -0.00511691 0.0315617 -0.104674 0.00125 83
1 0.183325 0.330693 0.00123433 0.00807729 0.000176107 -0.151563 0.00125 84
1 0.120987 0.30316 0.0015279 -0.00995086 -0.000707039 -0.23799 0.00125 85
1 0.124536 0.0236669 0.00132618 0.00211122 -0.0121392 0.205043 0.00125 86
1 0.269355 0.0823586 0.00128582 -0.0290286 0.00783037 0.187239 0.00125 87
1 0.067359 0.278775 0.00187766 -0.0131788 0.00314066 -0.207739 0.00125 88
1 0.3241 0.0738467 0.0016205 0.000181069 -0.00285745 -0.0933247 0.00125 89
1 0.398011 0.246478 0.00152029 0.015704 -0.00980411 -0.232658 0.00125 90
1 0.290884 0.0786826 0.00126229 0.0051888 0.0395604 0.193693 0.00125 91
1 0.120716 0.218665 0.0012458 0.0119403 0.00925123 0.196346 0.00125 92
1 0.350262 0.12032 0.0013127 0.0168622 0.041419 0.210332 0.00125 93
1 0.048209 0.0951054 0.00160487 -0.000200954 -0.00494578 0.0937837 0.00125 94
1 0.166416 0.257279 0.00195887 -0.0013999 0.00593358 -0.204662 0.00125 95
1 0.386333 0.0942009 0.00150553 0.00469019 -0.0185086 0.139708 0.00125 96
1 0.094439 0.385776 0.00173972 -0.00546747 -0.0177665 -0.200407 0.00125 97
1 0.0386985 0.280371 0.00141125 0.0153321 -0.0477091 -0.195892 0.00125 98
1 0.316458 0.286318 0.0014759 0.00660525 0.0213291 -0.189135 0.00125 99
1 0.218317 0.219415 0.00140316 0.0243002 -0.00378812 0.149003 0.00125 100
1 0.255172 0.0125294 0.0017164 -0.00638614 0.000284639 -0.0868883 0.00125 101
1 0.0926546 0.374024 0.0013973 0.0229119 -0.01201 -0.22403 0.00125 102
1 0.352793 0.381462 0.00164875 -0.0191387 -0.0386938 0.0960402 0.00125 103
1 0.178505 0.316009 0.00147414 -0.0346101 -0.0094379 -0.191815 0.00125 104
1 0.172432 0.320709 0.00231726 0.00851481 0.062193 -0.0441716 0.00125 105
1 0.280401 0.37384 0.00219215 0.00204325 0.0102542 -0.0475341 0.00125 106
1 0.240598 0.196459 0.00154803 -0.0234185 5.02573e-05 -0.236127 0.00125 107
1 0.330784 0.066847 0.00149071 -0.00339293 -0.00136309 0.208715 0.00125 108
1 0.0203177 0.0821074 0.0022165 0.0261173 0.00104035 -0.0408858 0.00125 109
1 0.239592 0.13928 0.00144712 0.0266292 -0.0564849 -0.118198 0.00125 110
1 0.270782 0.27178 0.00220127 0.0270987 -0.0149791 -0.0640549 0.00125 111
1 0.401754 0.0650997 0.00142971 -0.00657302 0.00148689 -0.182427 0.00125 112
1 0.25249 0.282142 0.00127643 0.0203678 -0.0139906 -0.201496 0.00125 113
1 0.0913689 0.355114 0.00124955 -0.015984 -0.00192536 -0.187958 0.00125 114
1 0.0804803 0.218681 0.00184495 0.00769188 0.00855901 -0.213745 0.00125 115
1 0.376847 0.401054 0.0017729 -0.00506796 0.0184565 -0.262745 0.00125 116
1 0.389296 0.190052 0.00183288 0.00753974 0.0140623 -0.0385493 0.00125 117
1 0.205848 0.0331328 0.00141988 0.0242847 -0.000295882 -0.22602 0.00125 118
1 0.378559 0.0732037 0.0014914 -0.0128286 0.0227173 0.0727799 0.00125 119
1 0.365098 0.327689 0.00157656 0.025701 -0.0166134 -0.230638 0.00125 120
1 0.316208 0.306749 0.00132649 0.00411846 -0.0166149 -0.245705 0.00125 121
1 0.251608 0.083013 0.00211632 -0.021368 -0.00628593 -0.0592425 0.00125 122
1 0.0486324 0.0783168 0.00126382 0.0350889 -0.0222545 0.192673 0.00125 123
1 0.397638 0.346236 0.00146437 -0.0285987 0.0337243 -0.0873765 0.00125 124
1 0.396065 0.23352 0.00123547 -0.0030255 -0.0144127 0.154981 0.00125 125
1 0.279691 0.247451 0.0020583 0.0155382 0.016965 -0.0627653 0.00125 126
1 0.373795 0.327927 0.00140118 0.0140525 0.0093131 0.219944 0.00125 127
1 0.144014 0.302261 0.00136577 0.0352172 -0.00522516 -0.267088 0.00125 128
1 0.14999 0.286977 0.00171202 -0.0045461 0.0185433 0.0663784 0.00125 129
1 0.206799 0.0752809 0.00132964 0.0141177 -0.0115858 -0.27395 0.00125 130
1 0.228422 0.199559 0.00134768 -0.0175267 -0.00379537 -0.233365 0.00125 131
1 0.289887 0.0403027 0.00158773 -0.0127786 -0.00018486 -0.181345 0.00125 132
1 0.170438 0.0778725 0.00150007 0.00382786 -0.0018274 -0.190875 0.00125 133
1 0.00134213 0.259365 0.00152179 0.0299429 -0.0697873 -0.198953 0.00125 134
1 0.107072 0.0910485 0.0016289 0.0137893 0.0137734 0.0534557 0.00125 135
1 0.284948 0.0787336 0.00159049 -0.00342094 -0.0137591 0.0949339 0.00125 136
1 0.36072 0.34432 0.0012983 -0.0181496 0.0168011 -0.1022 0.00125 137
1 0.363563 0.315818 0.00128628 -0.0323299 -0.0160721 -0.208393 0.00125 138
1 0.345471 0.155136 0.00127669 0.0199628 -0.0362967 0.189768 0.00125 139
1 0.388422 0.0554496 0.00201476 0.00055463 -0.00623769 -0.189485 0.00125 140
1 0.16638 0.337404 0.00151192 0.000774669 -0.0183268 0.111499 0.00125 141
1 0.183746 0.309116 0.00167269 0.0369329 0.0182969 -0.0962122 0.00125 142
1 0.205357 0.0892655 0.00150373 -0.00300008 -0.000482143 0.0724926 0.00125 143
1 0.079762 0.293372 0.00135654 0.000290356 -0.0139843 0.244202 0.00125 144
1 0.234079 0.0127407 0.001588 -0.0183425 0.0189194 0.0999363 0.00125 145
1 0.128747 0.285114 0.00169768 -0.0217875 0.0238584 0.103898 0.00125 146
1 0.288512 0.0874164 0.00177158 -0.00578987 -0.038574 -0.207877 0.00125 147
1 0.0543286 0.109274 0.00135978 -0.0355956 -0.0342388 0.0419604 0.00125 148
1 0.18457 0.244491 0.00184077 0.00304459 0.0093466 -0.196556 0.00125 149
1 0.101346 0.0600724 0.00152409 -0.00985592 -0.0067625 -0.190102 0.00125 150
1 0.111438 0.388981 0.00143969 0.00236433 -0.00692056 -0.235159 0.00125 151
1 0.102125 0.236001 0.00132365 0.0253973 -0.00579563 -0.0821454 0.00125 152
1 0.299143 0.089798 0.00244074 0.0597 -0.00815421 0.0328424 0.00125 153
1 0.246332 0.376587 0.00137484 -0.0134838 0.00067752 -0.236606 0.00125 154
1 0.0992675 0.301532 0.00133429 0.0202143 -0.0192842 -0.236895 0.00125 155
1 0.246134 0.209457 0.00139039 -0.0259987 -0.00308592 0.117502 0.00125 156
1 0.189041 0.305688 0.00124528 0.0218985 -0.00994936 -0.223229 0.00125 157
1 0.0573627 0.142707 0.00147849 -0.00902772 0.00315687 -0.238091 0.00125 158
1 0.103249 0.34461 0.00146657 0.0146088 0.00441488 -0.248153 0.00125 159
1 0.0152059 0.110592 0.00172363 0.0202233 0.00413003 -0.237942 0.00125 160
1 0.322651 0.224731 0.00136347 -0.0122912 0.00913524 -0.227121 0.00125 161
1 0.141449 0.254372 0.00213521 0.0170354 0.000487647 0.0100354 0.00125 162
1 0.345504 0.345477 0.00129833 0.0158022 0.00523768 0.109039 0.00125 163
1 0.299783 0.381091 0.00151724 0.00704185 -0.0227052 0.214498 0.00125 164
1 0.377549 0.211321 0.00239198 -0.0183186 0.000281169 -0.0220298 0.00125 165
1 0.0980528 0.379105 0.00132243 0.000392689 -0.0011981 -0.234286 0.00125 166
1 0.0843903 0.0653973 0.00175947 -0.0549115 0.0111822 -0.182814 0.00125 167
1 0.162151 0.275211 0.00126842 -0.00871125 -0.00946461 0.205174 0.00125 168
1 0.206489 0.103257 0.00149994 0.0166607 0.0115332 -0.232862 0.00125 169
1 0.0870708 0.243624 0.00155682 -0.00262286 0.0113232 -0.187068 0.00125 170
1 0.137757 0.207883 0.00137091 0.0151771 0.00352795 0.17546 0.00125 171
1 0.0360163 0.319279 0.00122561 -0.00179476 0.0090829 0.0127457 0.00125 172
1 0.207765 0.340962 0.0012825 -0.00994751 -0.0124879 0.206794 0.00125 173
1 0.36666 0.223206 0.00130756 0.0391489 0.00525939 -0.152642 0.00125 174
1 0.0820985 0.170358 0.00178619 -0.0318093 -0.018678 0.157199 0.00125 175
1 0.0548354 0.329509 0.00123553 -0.00169386 0.0124619 0.182713 0.00125 176
1 0.221514 0.231776 0.00142022 0.0086249 -0.0128931 0.144309 0.00125 177
1 0.20939 0.19839 0.00185132 -0.00189042 -0.014359 -0.233453 0.00125 178
1 0.0687712 0.371461 0.0013569 -0.00979467 -0.0265375 0.161164 0.00125 179
1 0.349581 0.148263 0.00143817 -0.0123819 -0.0110633 0.136113 0.00125 180
1 0.346769 0.182623 0.00172549 -0.00353613 -0.0238523 -0.162495 0.00125 181
1 0.121404 0.252121 0.00180241 0.00452256 -0.00817293 0.110164 0.00125 182
1 0.0785157 0.125781 0.00127347 -0.012734 0.00445218 -0.23129 0.00125 183
1 0.227205 0.390292 0.00126728 0.00930091 0.00121516 -0.227162 0.00125 184
1 0.232502 0.0984404 0.00163475 0.00775246 -0.0152833 0.093382 0.00125 185
1 0.365641 0.122609 0.00134316 0.0179634 0.0161204 0.168084 0.00125 186
1 0.234023 0.355125 0.00198145 0.0148408 -0.0140402 -0.216917 0.00125 187
1 0.157208 0.183055 0.00137486 0.0182097 -0.0122152 0.142977 0.00125 188
1 0.181556 0.0835972 0.00140786 -0.0138896 -0.00436171 0.11627 0.00125 189
1 0.0646844 0.288996 0.00242523 -0.0084486 0.00326406 0.0278386 0.00125 190
1 0.0623761 0.00867195 0.00147007 0.0169754 -0.00149797 0.210715 0.00125 191
1 0.0541302 0.0281483 0.00137465 0.0127 -0.018176 0.220395 0.00125 192
1 0.285542 0.070637 0.00200279 0.0317204 0.00514935 -0.220429 0.00125 193
1 0.325019 0.342368 0.00221357 -0.00137186 0.00209598 -0.052219 0.00125 194
1 0.0903443 0.337765 0.00194962 0.00607561 -0.0438233 -0.074791 0.00125 195
1 0.314533 0.336469 0.0018954 -0.00651978 0.00794961 -0.204209 0.00125 196
1 0.314736 0.0925428 0.00154956 0.0152548 -0.0176211 -0.239668 0.00125 197
1 0.325236 0.207989 0.00124917 -0.0080198 -0.00607205 0.278036 0.00125 198
1 0.0925897 0.0704093 0.00185138 -0.0039049 -0.00672845 -0.196817 0.00125 199
1 0.357739 0.0928571 0.00193548 -0.0244532 -0.0186556 -0.0696991 0.00125 200
1 0.214461 0.252939 0.00140345 -0.00654524 -0.0020473 0.145871 0.00125 201
1 0.224279 0.257198 0.00130974 -0.0176024 -0.00528005 0.182537 0.00125 202
1 0.0927458 0.0176483 0.00232037 -0.0195512 -0.0343846 -0.0208118 0.00125 203
1 0.0787377 0.138514 0.00162236 -0.0524034 -0.00384574 -0.169757 0.00125 204
1 0.323701 0.00130871 0.00124633 -0.0274419 0.00561456 -0.245631 0.00125 205
1 0.13307 0.187769 0.00148242 0.001898 0.0308166 0.105743 0.00125 206
1 0.395628 0.252626 0.00219098 -0.00212383 0.0142658 -0.0659677 0.00125 207
1 0.185332 0.281113 0.00134478 0.0075641 0.00940301 0.187356 0.00125 208
1 0.346898 0.2487 0.00147745 -0.0079974 -0.0101604 -0.0797531 0.00125 209
1 0.0567454 0.134773 0.00125714 0.020673 -0.00308239 -0.253482 0.00125 210
1 0.285777 0.0974377 0.00153019 -0.0206143 0.025336 -0.103902 0.00125 211
1 0.243431 0.384979 0.00147446 -0.0172786 0.0384167 -0.177766 0.00125 212
1 0.371566 0.146249 0.00241073 0.00327911 -0.00598005 -0.116081 0.00125 213
1 0.239195 0.331414 0.00135226 0.000970094 -0.00703326 0.185499 0.00125 214
1 0.388375 0.138576 0.00176263 0.0141544 -0.0184823 -0.218208 0.00125 215
1 0.200994 0.286977 0.00148098 -0.00388872 0.0128083 0.130797 0.00125 216
1 0.0209768 0.388603 0.00175999 0.00229748 0.0169214 -0.171478 0.00125 217
1 0.307801 0.143758 0.00150414 -0.00777648 -0.0105812 -0.232846 0.00125 218
1 0.323308 0.307288 0.00246806 -0.00386685 0.00482606 -0.0610905 0.00125 219
1 0.305676 0.0799274 0.00193978 -0.00976865 0.00241019 -0.0693635 0.00125 220
1 0.384634 0.151776 0.00123481 -0.00562643 0.0110654 0.137489 0.00125 221
1 0.227949 0.0194817 0.00171629 -0.0340799 0.00262836 -0.222214 0.00125 222
1 0.19642 0.281885 0.0013968 -0.0212446 -0.0184323 -0.0820666 0.00125 223
1 0.260927 0.31815 0.00126157 -0.00799845 -0.0117238 0.277073 0.00125 224
1 0.395873 0.105688 0.00151079 -0.0281431 -0.00638612 0.152958 0.00125 225
1 0.273116 0.397812 0.00128132 -0.0173369 -0.00410104 -0.206348 0.00125 226
1 0.0722867 0.193011 0.0012749 0.00045445 0.0143217 0.188375 0.00125 227
1 0.208214 0.143296 0.00131044 -0.0428787 0.00185036 0.163433 0.00125 228
1 0.359451 0.247049 0.0021132 -0.000668574 -0.000101206 -0.0578968 0.00125 229
1 0.121262 0.396941 0.00131831 -0.00474075 -0.00251682 -0.242402 0.00125 230
1 0.249839 0.317002 0.00170504 -0.00106977 -0.0165618 -0.044769 0.00125 231
1 0.305838 0.233788 0.00138564 0.00220334 0.0217491 0.159706 0.00125 232
1 0.0615853 0.210974 0.00147405 0.019418 0.0168159 -0.29713 0.00125 233
1 0.370453 0.00391475 0.00123075 0.00685234 0.015149 0.108906 0.00125 234
1 0.0678496 0.0820459 0.0014175 -0.0222688 0.0136929 0.170173 0.00125 235
1 0.10469 0.255152 0.00150104 0.00842848 -0.00781294 -0.232253 0.00125 236
1 0.322839 0.299248 0.00153432 -0.004836 0.0164672 -0.231762 0.00125 237
1 0.270715 0.133002 0.00136896 -0.0090488 0.000502269 0.175293 0.00125 238
1 0.265222 0.386491 0.00132871 -0.032637 0.00470555 0.191936 0.00125 239
1 0.241187 0.0786759 0.00189051 0.000671224 0.0254294 -0.203609 0.00125 240
1 0.277982 0.252906 0.00146056 0.031877 0.0197234 -0.189677 0.00125 241
1 0.359714 0.143194 0.00241644 -0.0968788 0.00778811 -0.0381366 0.00125 242
1 0.0716359 0.0723732 0.00176144 -0.0238233 -0.000109352 0.144325 0.00125 243
1 0.315312 0.174895 0.00221398 -0.0184986 0.0329793 -0.0168789 0.00125 244
1 0.105196 0.173559 0.00189937 -0.048295 -0.0604858 -0.139931 0.00125 245
1 0.244975 0.174726 0.00171941 0.0274006 0.00666334 -0.204009 0.00125 246
1 0.140165 0.193647 0.00199755 -0.0041747 0.0110928 -0.190837 0.00125 247
1 0.0574516 0.104217 0.00177248 -0.0021905 -0.0203935 -0.0801609 0.00125 248
1 0.14517 0.191965 0.00146931 -0.0157874 -0.0287042 0.0499051 0.00125 249
1 0.17913 0.115135 0.00202889 -0.0184251 0.0675974 -0.0616934 0.00125 250
1 0.236524 0.188648 0.00139016 -0.00556615 -0.00273506 0.180946 0.00125 251
1 0.141136 0.30424 0.00149846 0.00562038 0.022272 -0.299599 0.00125 252
1 0.247844 0.229413 0.00135788 -0.00673372 -0.010046 -0.223577 0.00125 253
1 0.126949 0.0503439 0.00133795 -0.0127154 -0.0242854 -0.20301 0.00125 254
1 0.300885 0.0315602 0.00134988 0.0145384 -0.0149911 -0.209465 0.00125 255
1 0.12564 0.16258 0.00229941 -0.0116312 0.0154023 -0.154814 0.00125 256
1 0.370087 0.333555 0.00140182 -0.00394499 -0.0084189 -0.24198 0.00125 257
1 0.30863 0.189421 0.0012489 -0.00648573 -0.00556572 -0.221472 0.00125 258
1 0.220725 0.380055 0.0013798 -0.00109213 -0.0120994 -0.0962362 0.00125 259
1 0.399217 0.0394248 0.00140971 -0.00907388 0.0199722 0.159032 0.00125 260
1 0.0039515 0.303924 0.00183357 0.00289549 0.00586044 -0.0897871 0.00125 261
1 0.0042398 0.210827 0.00150407 -0.0307452 0.00492921 -0.203358 0.00125 262
1 0.321268 0.172833 0.00145381 0.00950165 0.0245753 0.086904 0.00125 263
1 0.357092 0.273699 0.0013185 -0.0292591 -0.0139702 -0.201971 0.00125 264
1 0.0562008 0.196416 0.00132533 0.008047 -0.000360957 0.169353 0.00125 265
1 0.211426 0.144956 0.00129748 0.0861489 0.0390487 -0.122624 0.00125 266
1 0.137447 0.271897 0.00146575 -0.00989447 -0.00734197 -0.203889 0.00125 267
1 0.141615 0.0106702 0.00209798 0.00707078 -0.00448597 -0.0720648 0.00125 268
1 0.329618 0.0172904 0.00143727 -0.0052229 -0.00529922 0.139824 0.00125 269
1 0.00652293 0.291295 0.00122977 0.00315434 -0.00645405 0.00478114 0.00125 270
1 0.364974 0.144053 0.00169431 -0.00526675 0.0535252 -0.0609683 0.00125 271
1 0.314632 0.146648 0.00139799 -0.00246152 0.0417357 0.161595 0.00125 272
1 0.102296 0.239134 0.00202553 0.0157449 0.00200531 -0.185467 0.00125 273
1 0.206419 0.207585 0.00131938 -0.00567696 0.0127674 0.192509 0.00125 274
1 0.0466753 0.361332 0.00146633 0.00832278 -0.0238269 -0.227303 0.00125 275
1 0.140678 0.366365 0.00156993 -0.0561803 -0.0445908 -0.276606 0.00125 276
1 0.243566 0.0937143 0.00243991 -0.011214 0.00418504 -0.0770707 0.00125 277
1 0.235281 0.287596 0.00171025 0.0538431 0.0572126 -0.094931 0.00125 278
1 0.158935 0.119583 0.00129996 0.00583451 -0.00905332 -0.225206 0.00125 279
1 0.275623 0.315489 0.00137587 0.0195312 -0.00373355 -0.306535 0.00125 280
1 0.0917148 0.115132 0.00145286 0.00151684 -0.00113737 -0.239483 0.00125 281
1 0.360128 0.265828 0.00131192 0.0169089 -0.00333033 0.173892 0.00125 282
1 0.0607034 0.19155 0.0015084 0.0395015 0.0294735 0.112827 0.00125 283
1 0.052023 0.321341 0.00132158 -0.0114977 -0.00434839 0.199066 0.00125 284
1 0.382348 0.160116 0.00130935 -0.0174707 0.0032682 0.203762 0.00125 285
1 0.00300284 0.382944 0.00144278 -0.0155424 -0.00617936 -0.300725 0.00125 286
1 0.0229547 0.327817 0.0017761 -0.00196405 -0.0189136 -0.0795963 0.00125 287
1 0.119556 0.29009 0.0016747 -0.009669 -0.00982795 -0.227891 0.00125 288
1 0.135385 0.367929 0.00186383 -0.0168902 -0.0223977 -0.209849 0.00125 289
1 0.172613 0.324891 0.00242503 0.0272662 -0.0317441 -0.0314832 0.00125 290
1 0.0868597 0.0324771 0.00214347 0.0312597 0.0255404 -0.167356 0.00125 291
1 0.210367 0.339716 0.00156482 -0.0500836 0.00472584 0.0761615 0.00125 292
1 0.368653 0.353383 0.00123132 0.00171292 -0.00540369 0.0938666 0.00125 293
1 0.00237086 0.100983 0.00211794 0.0121452 -0.0540873 -0.0416649 0.00125 294
1 0.0221456 0.0999715 0.00148673 -0.0167933 0.00223285 0.207542 0.00125 295
1 0.102632 0.213797 0.00159054 0.00182168 -0.0133034 -0.206578 0.00125 296
1 0.118732 0.0466633 0.00162773 -0.00636243 -0.0124946 0.0922116 0.00125 297
1 0.204269 0.306234 0.00127048 0.0172561 0.00148897 0.189181 0.00125 298
1 0.297164 0.280227 0.00146137 0.0232998 0.0077514 -0.238773 0.00125 299
1 0.0714219 0.210221 0.0019592 -0.0224103 -0.0345736 -0.19851 0.00125 300
1 0.246457 0.168629 0.0013504 -0.00532325 -0.0173956 0.0256474 0.00125 301
1 0.310876 0.0481323 0.00132745 0.0040422 -0.00550682 -0.235843 0.00125 302
1 0.0925359 0.102665 0.00136647 -0.006988 -0.0137109 0.224961 0.00125 303
1 0.338302 0.398042 0.00175188 0.000309321 -0.0118015 -0.0815456 0.00125 304
1 0.0572408 0.21977 0.00185122 0.0196157 0.00581922 -0.074878 0.00125 305
1 0.227502 0.0604106 0.00135559 0.00804257 -0.00377773 0.0521318 0.00125 306
1 0.101529 0.208432 0.00138062 -0.014415 0.00851947 0.251271 0.00125 307
1 0.286975 0.0913668 0.00206183 -0.0299319 -0.00635734 -0.070708 0.00125 308
1 0.33719 0.130832 0.00137618 0.00474511 -0.00502853 0.244062 0.00125 309
1 0.103867 0.305962 0.00186538 0.0808111 0.0243235 -0.138537 0.00125 310
1 0.206006 0.0441847 0.00123547 0.00145721 -0.0109304 -0.163728 0.00125 311
1 0.165142 0.239331 0.0014451 0.012744 0.0165293 0.214996 0.00125 312
1 0.198832 0.32363 0.00149865 0.000975539 -0.0539013 0.187138 0.00125 313
1 0.248346 0.138977 0.00193576 -0.00202248 -0.00689097 -0.0671652 0.00125 314
1 0.368561 0.0418408 0.00180793 -0.0294856 0.0193149 0.11205 0.00125 315
1 0.132932 0.305566 0.00126991 0.00719183 0.0316374 -0.227955 0.00125 316
1 0.1605 0.154988 0.0016961 -0.0176681 -0.0177778 -0.226303 0.00125 317
1 0.136376 0.116296 0.00142697 0.0164991 -0.011726 -0.238343 0.00125 318
1 0.230132 0.22638 0.00124228 0.000136883 -0.00449312 -0.0651777 0.00125 319
1 0.185828 0.095022 0.00180637 -0.000495655 -0.0114221 0.108182 0.00125 320
1 0.379631 0.191876 0.0013525 -0.044659 -0.00389972 0.019389 0.00125 321
1 0.243825 0.0583013 0.00123334 0.0025525 -0.0187605 -0.147168 0.00125 322
1 0.255283 0.308035 0.00143844 -0.0168701 0.00375513 -0.234463 0.00125 323
1 0.149872 0.115473 0.00175968 -0.0082031 -0.00758322 0.114599 0.00125 324
1 0.2788 0.304261 0.00156146 0.0065536 -0.032106 0.10248 0.00125 325
1 0.189355 0.129433 0.00126333 -0.01636 0.00356274 0.189288 0.00125 326
1 0.101906 0.253302 0.00142361 -0.00658989 -0.00369486 -0.231438 0.00125 327
1 0.263228 0.052416 0.00185143 -0.0122301 -0.00565801 -0.0807607 0.00125 328
1 0.00866071 0.0390733 0.00182518 0.0212804 -0.0110494 -0.217518 0.00125 329
1 0.376743 0.0792653 0.00188387 -0.01603 -0.00143759 -0.192952 0.00125 330
1 0.0817412 0.201407 0.00124549 -0.00664218 0.00412408 -0.234177 0.00125 331
1 0.166449 0.0308045 0.00126349 0.0215338 -0.00357933 -0.230208 0.00125 332
1 0.277042 0.355141 0.00238598 -0.0113856 0.0105711 -0.00936447 0.00125 333
1 0.342918 0.339844 0.00124007 -0.00792722 0.007374 0.187904 0.00125 334
1 0.260863 0.145635 0.00186062 -0.000117861 -0.0129225 -0.222242 0.00125 335
1 0.213938 0.0567581 0.00134761 0.00526643 -0.01788 -0.231817 0.00125 336
1 0.0545492 0.215671 0.00128619 -0.00567887 -0.0202731 -0.00525177 0.00125 337
1 0.0263203 0.110404 0.00154624 -0.00898743 -0.015793 0.177002 0.00125 338
1 0.310861 0.219092 0.00169967 -0.0202507 0.0111077 -0.227088 0.00125 339
1 0.0616958 0.171155 0.0015694 -0.0611468 -0.0128355 -0.0927232 0.00125 340
1 0.202958 0.119765 0.00136448 -0.0193471 -0.0162976 -0.203078 0.00125 341
1 0.18905 0.219112 0.00153163 -0.000861119 -0.0107471 0.0899529 0.00125 342
1 0.303297 0.0593763 0.00139092 0.0387804 -0.0368019 -0.209508 0.00125 343
1 0.364982 0.139685 0.00157915 0.0123239 0.0119831 -0.176815 0.00125 344
1 0.356356 0.25785 0.00147558 0.00582552 -0.0409371 0.125792 0.00125 345
1 0.372512 0.101062 0.00142338 0.00273483 0.0183039 -0.195029 0.00125 346
1 0.291014 0.260204 0.00143543 0.0130895 -0.0105854 -0.198173 0.00125 347
1 0.282023 0.0581226 0.00125638 0.0169856 0.0171254 0.0144394 0.00125 348
1 0.290356 0.37241 0.00153248 0.00252229 -0.00241574 0.0779911 0.00125 349
1 0.0543933 0.303436 0.00237508 0.0235485 0.0371694 -0.0461155 0.00125 350
1 0.049393 0.359012 0.00233667 -0.00522882 -0.00467163 -0.00250671 0.00125 351
1 0.207561 0.0722422 0.00181514 -0.00404656 -0.0227401 -0.215956 0.00125 352
1 0.190665 0.119693 0.00136839 -0.00107849 -0.00676555 0.163567 0.00125 353
1 0.185669 0.0990533 0.00166569 -0.0305558 0.0174796 -0.192514 0.00125 354
1 0.19319 0.0190578 0.00148532 -0.0151271 0.00801008 -0.245788 0.00125 355
1 0.154336 0.400117 0.00125305 -0.00529727 -0.0277093 -0.228612 0.00125 356
1 0.296459 0.397183 0.00172801 -0.0240427 0.026149 0.115878 0.00125 357
1 0.125196 0.315821 0.00157241 0.00126888 0.00319395 -0.184268 0.00125 358
1 0.229654 0.11395 0.00132837 0.011584 -0.029369 -0.196323 0.00125 359
1 0.00782688 0.108476 0.00141039 -0.0284582 -0.0265576 -0.274674 0.00125 360
1 0.312544 0.174363 0.00161601 0.00342542 -0.00984807 -0.232888 0.00125 361
1 0.0385276 0.0714059 0.0025009 0.0107485 0.00552245 -0.0287528 0.00125 362
1 0.00390175 0.29475 0.00125864 -0.00988658 -0.00213359 -0.193613 0.00125 363
1 0.00828844 0.20363 0.00191245 0.0127017 -0.0285187 -0.0421556 0.00125 364
1 0.303429 0.315381 0.00214965 0.0238796 -0.012489 -0.164129 0.00125 365
1 0.0842282 0.388783 0.00159885 0.0172104 0.00238638 -0.182102 0.00125 366
1 0.184738 0.160071 0.0013664 -0.00279833 0.0108524 0.223585 0.00125 367
1 0.0831455 0.338963 0.00137489 -0.00479326 -7.64464e-05 0.182965 0.00125 368
1 0.167441 0.118395 0.00149712 -0.0197158 -0.00661052 -0.230358 0.00125 369
1 0.270331 0.335434 0.00144043 -0.025528 -0.00690771 0.240428 0.00125 370
1 0.076471 0.370882 0.00176811 -0.0383284 0.0277222 0.143787 0.00125 371
1 0.116342 0.239397 0.00189438 -0.00012816 0.00669696 -0.0711734 0.00125 372
1 0.280965 0.0789781 0.00130582 -0.0129622 0.00919776 -0.23162 0.00125 373
1 0.0227278 0.0880985 0.00182462 -0.0602018 0.017356 -0.070916 0.00125 374
1 0.0605005 0.0263902 0.00129815 -0.010074 0.0150843 0.235081 0.00125 375
1 0.355226 0.0806247 0.00127437 -0.00231694 0.00616342 0.163133 0.00125 376
1 0.154817 0.111549 0.00123274 -0.00529036 -0.0180001 0.117562 0.00125 377
1 0.179041 0.348777 0.00172419 -0.0107101 0.0433765 0.105632 0.00125 378
1 0.118296 0.354474 0.00213335 -0.0139168 -0.0121919 0.00880735 0.00125 379
1 0.315854 0.155936 0.00144081 -0.0022682 0.0316446 -0.208445 0.00125 380
1 0.382348 0.0804942 0.00162579 -0.0188894 0.00509431 0.0898798 0.00125 381
1 0.242455 0.0534168 0.00149383 -0.00465705 0.00463673 -0.238907 0.00125 382
1 0.112543 0.367626 0.00141607 0.00203246 -0.00796988 -0.236862 0.00125 383
1 0.389115 0.169561 0.00170083 -0.0100507 -0.035266 -0.166569 0.00125 384
1 0.0827596 0.0547796 0.00132287 0.0215942 -0.00339824 -0.236508 0.00125 385
1 0.274164 0.330694 0.00122504 0.0288506 0.0229368 -0.0837451 0.00125 386
1 0.112173 0.263244 0.00149192 -0.0159196 7.82806e-05 0.105351 0.00125 387
1 0.26485 0.312591 0.00130723 0.0125012 0.00164468 -0.229783 0.00125 388
1 0.308901 0.375403 0.0022733 -0.0199783 0.025467 0.0213108 0.00125 389
1 0.0864493 0.136792 0.00154889 -0.0014027 -0.000936317 0.061577 0.00125 390
1 0.240323 0.0849024 0.00128384 -0.00300019 0.0240969 -0.226191 0.00125 391
1 0.241655 0.360367 0.00146618 -0.0160621 -0.0115585 0.209003 0.00125 392
1 0.102106 0.0921064 0.00130659 -0.0228951 -0.0066776 0.206192 0.00125 393
1 0.17389 0.366639 0.00146401 -0.0338365 0.0101253 -0.228023 0.00125 394
1 0.235764 0.213987 0.00140175 0.034133 0.0430322 -0.149261 0.00125 395
1 0.326233 0.334999 0.00219655 -0.00426069 -0.012499 -0.0718003 0.00125 396
1 0.190083 0.361635 0.0016316 0.0141462 0.00588738 -0.172222 0.00125 397
1 0.242648 0.378576 0.00148233 0.0217666 -0.0227322 0.173828 0.00125 398