ITEM: TIMESTEP
1000000
ITEM: NUMBER OF ATOMS
10000
ITEM: BOX BOUNDS pp pp ff
0.0000000000000000e+00 6.2849153000000002e-01
0.0000000000000000e+00 6.2849153000000002e-01
-1.2500000000000001e-02 1.2500000000000001e-02
ITEM: ATOMS type x y z vx vy vz radius id
1 0.135998 0.236022 0.00152861 0.00903364 -0.00545508 -0.190421 0.00125 1
1 0.504024 0.36228 0.00144692 -0.0209552 0.0142151 0.13211 0.00125 2
1 0.305224 0.193919 0.00143982 0.00100541 0.000932765 -0.231648 0.00125 3
1 0.555563 0.548177 0.00201694 0.00155934 -0.0110866 -0.0647546 0.00125 4
1 0.42131 0.34278 0.00139665 -0.00808969 0.0136074 0.174231 0.00125 5
1 0.0483429 0.511338 0.0012312 0.00992782 0.0082496 0.0723633 0.00125 6
1 0.299305 0.267832 0.00137141 0.00604224 0.00914906 -0.202959 0.00125 7
1 0.514389 0.325254 0.00175442 -0.00675235 -0.00015043 0.11027 0.00125 8
1 0.540669 0.0973554 0.00129259 -0.0122613 -0.00590688 -0.232415 0.00125 9
1 0.143969 0.302846 0.0020123 0.0134496 -0.00605692 -0.184314 0.00125 10
1 0.177687 0.354732 0.00203299 0.000971247 -0.0050835 -0.029861 0.00125 11
1 0.549508 0.551521 0.00167676 0.00620472 -0.0104351 -0.0876783 0.00125 12
1 0.102787 0.479556 0.00132579 0.022001 -0.00921306 -0.234732 0.00125 13
1 0.501151 0.624679 0.00157264 -0.0164939 -0.0224576 0.0930882 0.00125 14
1 0.0908236 0.414975 0.00145812 -0.0106568 0.0165017 0.131756 0.00125 15
1 0.387481 0.463667 0.00129654 -0.0132667 -0.0489592 -0.131622 0.00125 16
1 0.42796 0.192814 0.00149429 0.0100978 0.0104556 0.0974007 0.00125 17
1 0.432546 0.220308 0.00198988 0.0058526 -0.0101971 -0.192182 0.00125 18
1 0.027988 0.45834 0.0012833 0.0109927 -0.0110268 0.248151 0.00125 19
1 0.620709 0.449318 0.00132927 0.0151608 -0.00239118 -0.23655 0.00125 20
1 0.324819 0.138024 0.00158865 0.0013319 0.00452239 0.095281 0.00125 21
1 0.385521 0.181601 0.00123689 0.00409645 -0.0203699 -0.213377 0.00125 22
1 0.622117 0.0362573 0.00144995 0.00026638 0.00487753 -0.241342 0.00125 23
1 0.498093 0.0633675 0.00130516 -0.0069069 0.00267503 0.199977 0.00125 24
1 0.337811 0.301314 0.00158163 0.00724144 0.0149364 -0.191375 0.00125 25
1 0.508365 0.299831 0.00143685 0.00420778 -0.00542772 -0.239592 0.00125 26
1 0.528666 0.137981 0.00165826 -0.00459491 -0.00123174 0.0891913 0.00125 27
1 0.0281243 0.480214 0.00147599 0.000347105 -0.00526786 -0.107008 0.00125 28
1 0.576109 0.388429 0.00154018 -0.00332419 -0.00865034 -0.193861 0.00125 29
1 0.143662 0.619749 0.00176629 -0.0149799 0.000373693 0.14614 0.00125 30
1 0.504033 0.478448 0.00144243 0.0224184 0.00765009 0.137889 0.00125 31
1 0.399462 0.33066 0.00181469 -0.0268995 0.0121604 -0.217402 0.00125 32
1 0.108723 0.543722 0.00148757 0.00955322 0.019184 0.202554 0.00125 33
1 0.53509 0.150963 0.00129514 0.0229719 -0.00767347 -0.233134 0.00125 34
1 0.467863 0.340893 0.00138572 0.00269247 -0.00537628 0.177826 0.00125 35
1 0.109145 0.334441 0.00142047 -0.0111208 -0.00791348 -0.238754 0.00125 36
1 0.111916 0.428111 0.00127632 0.0136686 -0.00518425 -0.0154594 0.00125 37
1 0.474959 0.455989 0.00158888 -0.00977768 -0.00546847 0.0514732 0.00125 38
1 0.512552 0.245201 0.00217794 0.0177086 -0.00727108 -0.156926 0.00125 39
1 0.0622047 0.590502 0.00151064 0.00682043 -0.0234199 -0.192472 0.00125 40
1 0.141171 0.234465 0.00182018 0.00505112 0.000210456 -0.0908296 0.00125 41
1 0.0852267 0.0553607 0.0015248 -0.00488673 0.017144 -0.231907 0.00125 42
1 0.498508 0.0847179 0.00128991 -0.0106075 0.00304041 -0.232678 0.00125 43
1 0.0155926 0.544627 0.00236357 0.00836722 -0.00194689 -0.0422028 0.00125 44
1 0.594685 0.357909 0.00146961 -0.00896967 0.0210028 0.221923 0.00125 45
1 0.474059 0.206086 0.00181522 0.000397776 0.0109558 -0.159433 0.00125 46
1 0.597822 0.0740852 0.00138931 -0.0232463 0.0186021 0.181263 0.00125 47
1 0.352267 0.211778 0.00243488 -0.00457195 -0.0101646 0.0345804 0.00125 48
1 0.0274983 0.37231 0.00235663 -0.00979529 -0.000721302 -0.04299 0.00125 49
1 0.549287 0.331574 0.00168997 0.00417054 -0.0136823 -0.0784947 0.00125 50
1 0.277389 0.324987 0.00156475 -0.00935625 -0.0135218 0.0955504 0.00125 51
1 0.0510056 0.530305 0.001375 -0.00753279 0.0114111 -0.306837 0.00125 52
1 0.326246 0.576519 0.00129518 -0.00013494 -0.00470501 0.0596245 0.00125 53
1 0.113364 0.0349824 0.00141865 -0.00625171 0.0042779 0.132926 0.00125 54
1 0.0563587 0.12416 0.00145066 0.00179156 0.00390384 0.228265 0.00125 55
1 0.298815 0.362307 0.00148849 0.00567014 0.0104752 -0.230355 0.00125 56
1 0.444405 0.271058 0.00156013 0.00676838 0.00841195 -0.0946684 0.00125 57
1 0.550359 0.0746291 0.00213381 0.0325765 -0.00470002 -0.0518355 0.00125 58
1 0.569732 0.563127 0.0014003 0.00463009 0.0145248 0.242166 0.00125 59
1 0.399258 0.302899 0.00130725 0.00065769 0.00679484 0.179984 0.00125 60
1 0.415536 0.0261999 0.00183792 0.00857823 -0.00367943 -0.150265 0.00125 61
1 0.453687 0.0623064 0.00124922 -0.0194489 -0.011701 -0.229838 0.00125 62
1 0.568346 0.256573 0.00132914 -0.00278296 0.00260056 -0.235561 0.00125 63
1 0.619508 0.0595153 0.00161048 -0.00223166 -0.00459092 -0.238918 0.00125 64
1 0.410753 0.360028 0.00123798 0.00401419 -0.0056983 -0.189627 0.00125 65
1 0.354554 0.329341 0.00123005 -0.00819476 -0.00880309 -0.00107519 0.00125 66
1 0.106015 0.195905 0.00186048 -0.00260362 0.00719624 -0.206646 0.00125 67
1 0.0502703 0.202215 0.00186521 0.00990549 -0.00415985 -0.209026 0.00125 68
1 0.45641 0.265629 0.00218643 0.0028131 0.000366118 -0.187909 0.00125 69
1 0.251311 0.0269375 0.00123821 -0.000718979 0.00587844 -0.193685 0.00125 70
1 0.183644 0.42664 0.00206897 0.00456368 -0.0194466 -0.0602511 0.00125 71
1 0.00371992 0.367611 0.00123332 0.0117791 -0.00720715 0.12167 0.00125 72
1 0.447629 0.17024 0.00225949 0.0087598 0.00220969 -0.0460842 0.00125 73
1 0.583711 0.00460761 0.001297 0.0205636 0.00773268 0.172596 0.00125 74
1 0.562628 0.477195 0.00212125 -0.00437086 0.0151069 -0.202255 0.00125 75
1 0.0976132 0.533767 0.00193195 0.00445875 0.00345746 -0.206948 0.00125 76
1 0.35486 0.234295 0.00209069 0.00525202 -0.00102134 -0.209045 0.00125 77
1 0.628076 0.439094 0.00199529 -0.00156615 0.0163968 -0.0655462 0.00125 78
1 0.0288466 0.0279374 0.00229331 0.00139435 0.00163472 -0.0644267 0.00125 79
1 0.291317 0.14652 0.00170325 0.00913721 0.0026502 -0.0812422 0.00125 80
1 0.0159334 0.1166 0.00130939 0.000740104 0.00871558 0.173906 0.00125 81
1 0.00544955 0.0144004 0.00134152 0.0148143 -0.00589028 0.226339 0.00125 82
1 0.318374 0.12521 0.001922 -0.020204 -0.00335661 -0.00947611 0.00125 83
1 0.574049 0.221063 0.00131493 0.000217215 -0.0279999 0.149063 0.00125 84
1 0.592775 0.137546 0.00151943 -0.00224805 -0.000100421 0.129525 0.00125 85
1 0.626836 0.388234 0.00188352 -0.000588023 -0.00122403 -0.24429 0.00125 86
1 0.335116 0.0882937 0.00144226 -0.000453248 -0.00276043 -0.197877 0.00125 87
1 0.579837 0.442584 0.0015217 -0.00824216 0.00372575 -0.231563 0.00125 88
1 0.500228 0.2402 0.00129594 0.00176528 -0.00286018 -0.0880366 0.00125 89
1 0.467284 0.147978 0.00242023 -0.00374188 -0.00208556 0.0318672 0.00125 90
1 0.501872 0.103292 0.00143976 -0.023418 0.000154684 -0.2395 0.00125 91
1 0.342034 0.389252 0.00144034 -0.000334116 0.000688615 -0.237037 0.00125 92
1 0.0294292 0.285564 0.00188624 0.00355876 -0.00667279 -0.0290927 0.00125 93
1 0.0266297 0.175172 0.00133504 -0.00648545 -0.0147874 0.230414 0.00125 94
1 0.525099 0.231426 0.00146531 0.00543922 -0.00284659 -0.243786 0.00125 95
1 0.103 0.570205 0.00133815 0.0025464 -0.006229 0.191398 0.00125 96
1 0.362726 0.4429 0.00138195 -0.00614466 -0.00385626 0.12354 0.00125 97
1 0.436527 0.251951 0.00130909 -0.00292974 -0.0104945 -0.206194 0.00125 98
1 0.377624 0.56335 0.00135822 -0.0131165 -0.00869224 -0.23758 0.00125 99
1 0.312707 0.107912 0.00195554 -0.0143355 7.59841e-05 -0.0288635 0.00125 100
1 0.41612 0.377403 0.00142229 -0.00882892 -0.000511307 -0.231498 0.00125 101
1 0.425184 0.500603 0.00179017 -0.00294628 0.0100623 0.15469 0.00125 102
1 0.130149 0.519083 0.00133935 0.01146 0.00769809 -0.233414 0.00125 103
1 0.201536 0.137771 0.00134367 0.00163545 0.00903843 0.189929 0.00125 104
1 0.469534 0.311437 0.00161339 0.0128375 0.0087755 -0.233184 0.00125 105
1 0.386576 0.199195 0.00189055 -0.0180727 -0.00106061 -0.0722646 0.00125 106
1 0.34301 0.560916 0.00176221 0.00886607 0.00214349 -0.224782 0.00125 107
1 0.584134 0.392259 0.00147145 -0.0153011 -0.00564916 -0.232701 0.00125 108
1 0.0783996 0.489841 0.00126983 0.00722447 0.00870359 -0.221411 0.00125 109
1 0.441737 0.0818995 0.00128659 0.00573454 -0.0034324 0.262281 0.00125 110
1 0.470378 0.313901 0.00125908 0.00456695 0.0136327 0.176279 0.00125 111
1 0.481266 0.626049 0.00170233 -0.0126952 0.00915121 -0.0451401 0.00125 112
1 0.25611 0.124874 0.00190603 0.0163121 -0.00104363 -0.0711557 0.00125 113
1 0.494484 0.517172 0.00219807 0.000406418 0.0187313 0.00929658 0.00125 114
1 0.264674 0.483539 0.0013604 0.00140465 -0.000616939 0.224172 0.00125 115
1 0.110641 0.1565 0.00140751 0.00602376 0.00641215 -0.0806362 0.00125 116
1 0.586117 0.564371 0.00128035 0.000277462 -0.00989397 -0.102727 0.00125 117
1 0.052001 0.175999 0.00145547 0.0174869 0.00481457 -0.232099 0.00125 118
1 0.140043 0.0656321 0.00168316 -0.0119862 0.00641728 -0.0911224 0.00125 119
1 0.38914 0.0315737 0.00133697 -0.0235374 0.00305348 -0.309688 0.00125 120
1 0.620718 0.184803 0.0018465 0.00531614 0.00122744 -0.0751417 0.00125 121
1 0.616096 0.214546 0.00138255 -0.0211338 0.00447888 0.18645 0.00125 122
1 0.336887 0.410587 0.00146541 -0.00559796 0.000120082 0.127195 0.00125 123
1 0.429978 0.202876 0.00172413 -0.00760514 0.00979853 -0.0902058 0.00125 124
1 0.331383 0.240048 0.00149302 -0.00793542 0.0055459 0.100691 0.00125 125
1 0.257667 0.120935 0.00136989 0.00761437 -0.00449357 0.163468 0.00125 126
1 0.623472 0.43596 0.00160752 -0.00998099 -0.0196381 -0.283294 0.00125 127
1 0.030725 0.207417 0.0019353 -0.00581019 0.00250864 -0.070065 0.00125 128
1 0.198593 0.432857 0.00164156 -0.00342857 0.0211913 -0.230392 0.00125 129
1 0.427421 0.128399 0.00127313 -0.0137568 -0.0053418 -0.0174112 0.00125 130
1 0.575447 0.308709 0.0014822 0.00382481 0.0146303 -0.296799 0.00125 131
1 0.430092 0.397614 0.00140503 -0.00301783 -0.0022745 -0.241935 0.00125 132
1 0.330986 0.33291 0.00222046 0.00104583 -0.0166212 -0.0487705 0.00125 133
1 0.071844 0.0743981 0.00180797 0.0036112 -0.00294234 0.107585 0.00125 134
1 0.4746 0.510394 0.00158238 0.000613262 0.00606719 -0.235034 0.00125 135
1 0.625415 0.0119403 0.00226272 -0.00716457 0.00287245 -0.0467427 0.00125 136
1 0.261018 0.328294 0.001276 0.00502206 -0.00301591 -0.239374 0.00125 137
1 0.339933 0.605645 0.00153505 0.0012015 0.00637355 0.104842 0.00125 138
1 0.192764 0.603064 0.00142273 -0.0104981 -0.00804466 0.169125 0.00125 139
1 0.416787 0.269202 0.00207561 -0.0239955 0.00121771 -0.0625356 0.00125 140
1 0.324416 0.259933 0.00139445 -0.00541226 -0.0025161 -0.23863 0.00125 141
1 0.0353861 0.0633029 0.0013123 -0.0120796 0.0130173 -0.235982 0.00125 142
1 0.626895 0.3829 0.00175385 -0.00241971 -0.00125557 0.161224 0.00125 143
1 0.578752 0.54566 0.00221569 0.0135006 -0.0144688 -0.0522281 0.00125 144
1 0.429966 0.606614 0.00171927 -0.00306514 -0.00174905 -0.225084 0.00125 145
1 0.475291 0.20355 0.0022323 -0.00337748 -0.00651647 -0.0524383 0.00125 146
1 0.338842 0.537119 0.0013232 -0.0202941 -0.0182021 0.232614 0.00125 147
1 0.0123052 0.521079 0.00129072 0.0081718 -0.0096084 0.25955 0.00125 148
1 0.329227 0.466948 0.00176693 0.000301063 -0.00256572 0.138462 0.00125 149
1 0.506971 0.421244 0.00137422 0.00305164 -0.00213726 -0.236048 0.00125 150
1 0.462398 0.60582 0.00125422 -0.00609346 -0.011823 -0.208583 0.00125 151
1 0.029185 0.0552444 0.00200578 -0.00176492 0.00151695 -0.190205 0.00125 152
1 0.45198 0.266696 0.0013554 -0.00779408 -0.00975967 0.186605 0.00125 153
1 0.482155 0.380978 0.00155871 0.02463 0.0102619 0.175291 0.00125 154
1 0.474891 0.175983 0.00135335 0.0158681 0.0115059 0.187588 0.00125 155
1 0.0768612 0.0252979 0.00154362 0.000838701 0.00363615 0.10522 0.00125 156
1 0.0575741 0.399688 0.00235625 0.00907834 0.00962447 -0.105718 0.00125 157
1 0.199951 0.0974891 0.0015648 0.00585341 -0.00308832 -0.235298 0.00125 158
1 0.166309 0.337785 0.00131565 -0.00391248 -0.00283868 0.264684 0.00125 159
1 0.498536 0.347902 0.00123239 -0.00724183 -0.00228918 -0.113812 0.00125 160
1 0.360188 0.371121 0.00124645 0.012125 -0.0126985 0.214653 0.00125 161
1 0.534185 0.605582 0.00216265 0.0092394 0.0113794 -0.162457 0.00125 162
1 0.161943 0.545725 0.00148527 0.00582178 -0.000369983 -0.107041 0.00125 163
1 0.173914 0.157467 0.00148071 -0.0339018 0.00671693 -0.111062 0.00125 164
1 0.24162 0.297061 0.00141807 -0.0113322 -0.00239073 -0.225998 0.00125 165
1 0.0507388 0.441657 0.00150923 0.00426902 0.00899765 -0.23822 0.00125 166
1 0.338914 0.375716 0.00245929 0.00118283 -0.00154498 -0.0372588 0.00125 167
1 0.54993 0.429429 0.00136711 0.0184657 0.0201326 0.183684 0.00125 168
1 0.225971 0.408235 0.00187924 -0.00650035 -0.00564604 -0.0872972 0.00125 169
1 0.510713 0.215668 0.00214979 0.000103941 -0.00962373 -0.0564519 0.00125 170
1 0.552229 0.0730374 0.00131285 -0.0154864 0.00237477 -0.232286 0.00125 171
1 0.488417 0.070003 0.00148096 0.000241447 0.0114418 0.120552 0.00125 172
1 0.477283 0.325809 0.00132431 -0.00118882 -0.0094214 0.16599 0.00125 173
1 0.267999 0.359283 0.00127352 0.00324525 -0.00597321 0.0815405 0.00125 174
1 0.232581 0.304387 0.00159611 -0.00435256 0.00111454 0.0916345 0.00125 175
1 0.470786 0.462924 0.00127399 -0.00719378 -0.00469967 -0.198759 0.00125 176
1 0.110125 0.319427 0.00170089 0.00310529 -0.00199842 0.099712 0.00125 177
1 0.0970732 0.186345 0.00157745 0.000513115 0.00252615 0.0995367 0.00125 178
1 0.464096 0.520601 0.00174918 -0.00160188 -0.00806648 0.1765 0.00125 179
1 0.127205 0.194641 0.00226101 0.0229946 -0.00592916 -0.0495225 0.00125 180
1 0.542963 0.337032 0.00212528 0.0169062 -0.0083258 -0.168757 0.00125 181
1 0.260466 0.288402 0.00136607 -0.00795793 0.000508514 -0.202294 0.00125 182
1 0.493809 0.135685 0.00134606 0.023291 -0.0135469 0.00602175 0.00125 183
1 0.22114 0.437393 0.00133934 0.0145493 -0.00101158 -0.0990409 0.00125 184
1 0.079356 0.0414533 0.00133595 -0.0102722 0.0197662 0.172895 0.00125 185
1 0.109581 0.414649 0.00123531 -0.00196536 -0.00241017 -0.191394 0.00125 186
1 0.173094 0.42831 0.00149615 0.00882201 0.00645642 0.222206 0.00125 187
1 0.554256 0.0149938 0.00123109 0.00460893 0.0164449 0.0674422 0.00125 188
1 0.441325 0.224945 0.00140693 -0.00986917 0.00273192 0.219881 0.00125 189
1 0.1081 0.175647 0.00130079 0.00906134 -0.00183882 0.182171 0.00125 190
1 0.234147 0.450653 0.00157138 0.00431396 -0.00577478 -0.286654 0.00125 191
1 0.332796 0.449566 0.00238736 0.0105639 -0.00787862 -0.0473606 0.00125 192
1 0.189472 0.387314 0.00133016 -0.0073832 0.0221369 -0.253162 0.00125 193
1 0.539076 0.148904 0.00142187 0.0114685 -0.00594954 0.21369 0.00125 194
1 0.115272 0.202726 0.0024672 0.0193826 -0.0112638 0.00947251 0.00125 195
1 0.342723 0.589588 0.00218469 0.0149809 0.0090791 0.0139128 0.00125 196
1 0.252252 0.0453519 0.00136805 0.00189013 0.00903451 0.183811 0.00125 197
1 0.148178 0.526723 0.00173552 -0.0123963 0.00878842 0.119829 0.00125 198
1 0.336668 0.483994 0.00131956 -0.00308311 0.00396454 0.176551 0.00125 199
1 0.0404103 0.481648 0.00147845 -0.00642049 -0.0180702 -0.243777 0.00125 200
1 0.304384 0.573782 0.00131332 -0.00530406 -0.00235191 0.27008 0.00125 201
1 0.328882 0.192944 0.00149343 0.00137047 -0.0035241 -0.252985 0.00125 202
1 0.218577 0.30465 0.00136589 -0.00500423 0.0260403 -0.227819 0.00125 203
1 0.00102523 0.116238 0.00163928 -0.00765675 0.0102006 -0.230686 0.00125 204
1 0.012034 0.246052 0.00141238 0.00856017 -0.00162126 -0.238217 0.00125 205
1 0.00233773 0.385032 0.00132692 -0.0153725 0.0148198 0.172107 0.00125 206
1 0.397588 0.0487015 0.00131373 0.0168882 0.00592179 -0.230284 0.00125 207
1 0.569675 0.0948308 0.00141801 0.0215222 -0.00225969 -0.21251 0.00125 208
1 0.296462 0.129505 0.00135088 -0.0128406 0.000430979 0.188364 0.00125 209
1 0.21005 0.305799 0.00123877 -0.00146222 0.00409211 0.176035 0.00125 210
1 0.0224861 0.149415 0.00167469 0.0061369 -0.00849838 -0.0909434 0.00125 211
1 0.490403 0.50459 0.00128077 0.0149465 0.00825655 -0.233658 0.00125 212
1 0.0893951 0.359983 0.00131677 -0.00598073 -0.00668633 -0.236617 0.00125 213
1 0.501773 0.0994484 0.00202497 -0.00544642 0.00334881 -0.0638197 0.00125 214
1 0.407224 0.391993 0.00153811 0.00140537 0.00434417 0.101573 0.00125 215
1 0.471435 0.29677 0.00228776 0.00132083 -0.00626131 -0.047372 0.00125 216
1 0.433103 0.456924 0.00129066 0.0039392 0.000650826 0.159252 0.00125 217
1 0.532782 0.341984 0.00157374 0.00593955 0.00451411 -0.229372 0.00125 218
1 0.552811 0.495916 0.00136106 0.000109075 -0.085289 -0.214918 0.00125 219
1 0.2848 0.241838 0.00136217 0.0126485 -0.000707819 0.190194 0.00125 220
1 0.446851 0.435882 0.00158389 0.0051807 -0.00857128 -0.229221 0.00125 221
1 0.482421 0.390017 0.00180629 0.0102477 0.0184864 0.110771 0.00125 222
1 0.627488 0.48847 0.00123274 -0.00532862 0.0138828 0.200257 0.00125 223
1 0.533531 0.262893 0.00182867 0.0221305 0.000760466 -0.21714 0.00125 224
1 0.176816 0.0525305 0.00135598 -0.00323621 0.00267239 0.0246015 0.00125 225
1 0.527665 0.0477727 0.00229531 7.11756e-05 -0.000220318 -0.125782 0.00125 226
1 0.399499 0.199627 0.00126233 -0.0221291 -0.00393068 0.211347 0.00125 227
1 0.308637 0.3676 0.00142288 -0.00406635 -0.000843343 0.218535 0.00125 228
1 0.519684 0.225945 0.00149804 0.015188 0.00309509 -0.232181 0.00125 229
1 0.32938 0.0784081 0.00134184 0.00137548 -0.00306797 -0.20407 0.00125 230
1 0.589677 0.0967502 0.00142578 0.00394122 0.00647501 0.139952 0.00125 231
1 0.201344 0.485409 0.00144672 0.00591693 0.00617476 -0.238488 0.00125 232
1 0.61019 0.324503 0.00234537 0.0162666 0.017211 -0.0471033 0.00125 233
1 0.216541 0.267375 0.00149845 0.00902596 0.0134516 -0.237471 0.00125 234
1 0.48432 0.44833 0.00125676 0.0106389 0.00640961 0.0936407 0.00125 235
1 0.0514433 0.413069 0.00160247 0.00492234 -0.000552671 0.0522057 0.00125 236
1 0.484632 0.179258 0.00138858 -0.00613924 -0.0101205 -0.239929 0.00125 237
1 0.165222 0.449221 0.00161723 -0.0250428 -0.0132148 -0.226735 0.00125 238
1 0.121682 0.181779 0.00145695 -0.0218397 -0.00471798 -0.239506 0.00125 239
1 0.318263 0.508209 0.00127018 -0.00463534 -0.0120935 0.238726 0.00125 240
1 0.112347 0.0157326 0.00177355 0.00302567 0.00372076 -0.262379 0.00125 241
1 0.148807 0.173787 0.0017184 0.00524622 0.00901971 0.179271 0.00125 242
1 0.18046 0.0575125 0.00155143 0.00817426 0.00748174 -0.236861 0.00125 243
1 0.347155 0.23009 0.00123336 -0.00345468 0.000785506 0.122657 0.00125 244
1 0.100828 0.0260627 0.00173403 -0.00276023 -0.00428166 0.0706661 0.00125 245
1 0.111599 0.459766 0.00168803 0.00272694 -0.00552003 0.0644098 0.00125 246
1 0.050091 0.386012 0.00171428 0.00754235 -0.00808508 -0.0962392 0.00125 247
1 0.587711 0.494401 0.002046 -0.017744 4.9404e-05 -0.0747764 0.00125 248
1 0.40603 0.404492 0.00133944 0.00936037 0.00423595 0.228434 0.00125 249
1 0.464644 0.249135 0.00241151 0.00970531 -0.000696515 0.03135 0.00125 250
1 0.60278 0.426515 0.00166727 0.0171081 -0.0153809 -0.230381 0.00125 251
1 0.461092 0.450172 0.00218456 0.00359598 -0.00999824 -0.0535437 0.00125 252
1 0.167712 0.236483 0.00153897 -0.0111825 -0.000544173 -0.231271 0.00125 253
1 0.224306 0.351871 0.00142826 -0.00117641 0.0370079 0.150183 0.00125 254
1 0.390979 0.457896 0.00152 -0.0492778 -0.0369202 -0.223211 0.00125 255
1 0.0747304 0.234086 0.00161552 -0.010533 -0.00207027 -0.235716 0.00125 256
1 0.366187 0.0118813 0.0017488 0.00327162 0.00326741 -0.217983 0.00125 257
1 0.533704 0.490063 0.00124386 0.00633145 -0.012198 0.218485 0.00125 258
1 0.229791 0.144617 0.00142425 0.00717519 0.00722076 -0.102974 0.00125 259
1 0.272053 0.602238 0.00124917 -0.00976544 -0.0114355 -0.000607927 0.00125 260
1 0.0584794 0.255638 0.00164939 -0.00502408 -0.000510963 -0.0918043 0.00125 261
1 0.431377 0.142251 0.00150458 0.0164543 -0.0109831 0.0477893 0.00125 262
1 0.228899 0.335477 0.00138398 0.00852159 0.00815823 0.2219 0.00125 263
1 0.191585 0.511502 0.00161952 -0.00706833 -0.00866686 -0.185495 0.00125 264
1 0.04829 0.541881 0.00146786 -0.00379298 -0.00151145 0.222814 0.00125 265
1 0.593954 0.43008 0.00206059 -0.0250279 -0.00123196 -0.215042 0.00125 266
1 0.293301 0.0691813 0.00129448 -0.00330601 -0.00827477 -0.220059 0.00125 267
1 0.506176 0.00384519 0.00136919 0.00406558 0.00605187 0.128585 0.00125 268
1 0.395009 0.129881 0.0022967 0.0160934 0.00524404 -0.0467988 0.00125 269
1 0.359308 0.19646 0.00175933 0.0039353 0.00388638 -0.21719 0.00125 270
1 0.458788 0.557858 0.00144588 0.010462 0.0181756 0.228434 0.00125 271
1 0.251071 0.151883 0.00134031 -0.0156293 -0.00891192 -0.112121 0.00125 272
1 0.309541 0.513171 0.0013049 -0.011064 0.00142634 -0.23268 0.00125 273
1 0.088699 0.0413849 0.0019825 0.0741692 0.0256329 -0.200649 0.00125 274
1 0.0154709 0.499715 0.0017789 -0.00710467 -0.0134496 -0.219276 0.00125 275
1 0.350819 0.570243 0.00138321 0.00573481 -0.01079 -0.239618 0.00125 276
1 0.329423 0.127202 0.00143995 -0.0095574 0.0148141 -0.231712 0.00125 277
1 0.530671 0.28753 0.00136169 0.0113952 -0.0218324 -0.220739 0.00125 278
1 0.520185 0.142101 0.00162383 -0.00406672 0.0135955 -0.17952 0.00125 279
1 0.590188 0.518121 0.00149989 -0.00923071 -0.00455558 0.118414 0.00125 280
1 0.449323 0.427782 0.00189345 -0.0185797 0.00421788 -0.072989 0.00125 281
1 0.123496 0.173893 0.00191726 0.0141599 -0.0207385 -0.0146107 0.00125 282
1 0.50704 0.2897 0.00165338 0.000799294 0.00155603 -0.230347 0.00125 283
1 0.409471 0.357822 0.00170178 -0.00406891 0.00525815 0.18824 0.00125 284
1 0.0155657 0.521951 0.00148812 -0.0048468 0.00359842 -0.269364 0.00125 285
1 0.00538132 0.0212508 0.00138792 0.0270659 0.00460551 -0.243628 0.00125 286
1 0.283624 0.261158 0.00156259 0.00114239 -0.00504012 -0.230691 0.00125 287
1 0.125346 0.341914 0.00125095 -0.00333389 -0.00242301 0.180062 0.00125 288
1 0.120805 0.320929 0.00153629 -0.0148458 0.0103383 -0.184574 0.00125 289
1 0.414293 0.395905 0.00136602 0.00238478 0.00754184 -0.235664 0.00125 290
1 0.604283 0.232847 0.00162273 0.00279036 0.00428407 -0.181439 0.00125 291
1 0.0268201 0.339272 0.0012429 -0.00231465 -0.00274642 0.240788 0.00125 292
1 0.0956523 0.32586 0.00155056 0.00819346 -0.0168214 -0.236476 0.00125 293
1 0.0332068 0.159077 0.00131185 -0.00817859 0.000951427 -0.231695 0.00125 294
1 0.447435 0.0889969 0.00123911 -0.0139134 0.00116902 0.178274 0.00125 295
1 0.530457 0.615107 0.00126344 -0.00275256 -0.00509013 0.192432 0.00125 296
1 0.485176 0.221339 0.00138462 0.0190003 0.000272994 -0.229883 0.00125 297
1 0.481584 0.480213 0.00139358 -0.00266454 -0.00365826 -0.0821944 0.00125 298
1 0.132428 0.37754 0.0012351 -0.00839351 0.00867289 0.147582 0.00125 299
1 0.457521 0.490012 0.00172839 -0.000147129 0.00180067 -0.156473 0.00125 300
1 0.120775 0.544402 0.0013463 -0.00353616 0.00967604 0.193571 0.00125 301
1 0.311474 0.380313 0.00138941 0.0092762 -0.00113753 -0.22402 0.00125 302
1 0.124368 0.557909 0.00163503 0.0137609 -0.00859239 -0.0574347 0.00125 303
1 0.598796 0.396137 0.00150095 -0.000669176 0.0190322 0.0694921 0.00125 304
1 0.594644 0.370072 0.00133031 -0.00363893 -0.00279527 -0.239714 0.00125 305
1 0.229179 0.443226 0.00122961 -0.00395071 0.0102807 0.0826523 0.00125 306
1 0.403905 0.31339 0.00152356 -0.0162308 0.00272542 0.212102 0.00125 307
1 0.411839 0.568158 0.00126247 0.0195704 -0.00338891 0.19306 0.00125 308
1 0.298285 0.498236 0.00142095 0.0195494 0.0153825 0.130599 0.00125 309
1 0.250844 0.13442 0.00191436 0.00440153 0.00445811 -0.191432 0.00125 310
1 0.590215 0.464049 0.00123603 0.0128427 -0.00587909 0.177643 0.00125 311
1 0.129529 0.0839949 0.00127244 0.00481679 0.0132006 -0.230192 0.00125 312
1 0.0203381 0.481885 0.00143295 -0.00159031 0.00282646 0.166861 0.00125 313
1 0.308855 0.0846859 0.00194429 0.0206693 0.000311137 -0.0628423 0.00125 314
1 0.422402 0.477857 0.00217489 0.00545163 -0.00314466 -0.154266 0.00125 315
1 0.258182 0.068544 0.00146741 -0.000489969 -0.0039174 -0.232801 0.00125 316
1 0.208098 0.460978 0.00192117 0.0206163 -0.00453226 -0.0565112 0.00125 317
1 0.354726 0.0117557 0.00151585 0.00462203 0.00808812 -0.293594 0.00125 318
1 0.47785 0.0717196 0.00201556 0.0111157 -0.0101765 -0.17758 0.00125 319
1 0.00263678 0.037065 0.00222295 0.00374299 -0.0144192 -0.0145298 0.00125 320
1 0.276403 0.396005 0.00161313 -0.00201263 0.00257434 0.0954672 0.00125 321
1 0.122941 0.04474 0.00150286 -0.0139837 -0.00078043 0.112326 0.00125 322
1 0.59867 0.144804 0.00167008 -0.00270793 -0.00336013 0.0942561 0.00125 323
1 0.112986 0.196834 0.00122616 0.00032543 0.00093838 0.122966 0.00125 324
1 0.533772 0.358137 0.00161976 -0.00405366 0.00201241 0.0923648 0.00125 325
1 0.0227945 0.614049 0.00126284 0.00331939 -0.00541588 0.193712 0.00125 326
1 0.106893 0.129195 0.00158537 -0.0174682 0.0115989 -0.23586 0.00125 327
1 0.0199028 0.575599 0.00145821 0.0244513 0.00152665 0.133696 0.00125 328
1 0.123198 0.226118 0.00126771 -0.00155838 -0.000627528 -0.233419 0.00125 329
1 0.427968 0.413626 0.00194617 -0.00183596 -0.000443932 -0.0560821 0.00125 330
1 0.500785 0.571381 0.00126005 -0.00484607 -0.00468974 -8.79223e-05 0.00125 331
1 0.571275 0.413546 0.00168718 -0.000502061 -0.000558017 0.0844533 0.00125 332
1 0.598811 0.0498307 0.00122969 0.000919112 -0.00089461 0.0184814 0.00125 333
1 0.15035 0.212208 0.00157745 -0.00984327 -0.00274348 0.0512967 0.00125 334
1 0.351609 0.484192 0.00129143 0.0036767 -0.0053591 0.182771 0.00125 335
1 0.61225 0.128755 0.0013755 -0.00406881 -0.0058851 -0.186638 0.00125 336
1 0.207156 0.5343 0.00165282 0.00876417 0.00122699 0.0545641 0.00125 337
1 0.0367525 0.372916 0.00131682 -0.00095745 -0.017478 0.176748 0.00125 338
1 0.276964 0.609116 0.00174746 0.000541395 -0.00311436 -0.0815357 0.00125 339
1 0.501852 0.497407 0.00137072 -0.00402114 0.00325341 0.133044 0.00125 340
1 0.546881 0.200222 0.0014467 -0.00498516 -0.0116953 0.134366 0.00125 341
1 0.551196 0.0504245 0.0018825 -0.00796693 -0.000255326 -0.0877988 0.00125 342
1 0.24019 0.611001 0.00138775 1.9144e-05 0.00456811 -0.304475 0.00125 343
1 0.419844 0.109171 0.00136803 0.000551622 -0.00599638 -0.227441 0.00125 344
1 0.0242709 0.407759 0.00162172 -0.0233354 -0.0104909 -0.172548 0.00125 345
1 0.281354 0.251452 0.00140359 -0.00509694 0.016643 0.244516 0.00125 346
1 0.54788 0.444939 0.00169649 -0.00194325 0.0153411 -0.2217 0.00125 347
1 0.313294 0.0988201 0.00130045 -0.0131807 0.00320047 -0.188836 0.00125 348
1 0.300015 0.531622 0.00125885 0.00314527 0.00819177 0.195669 0.00125 349
1 0.599461 0.219937 0.0012323 -0.0160935 -0.00326805 -0.0401612 0.00125 350
1 0.014226 0.00625179 0.00154005 -0.00506685 0.00641717 -0.194076 0.00125 351
1 0.529101 0.127882 0.00197229 -0.00696769 0.00399787 -0.0788703 0.00125 352
1 0.307278 0.110537 0.00146091 0.0112636 0.00148022 0.130198 0.00125 353
1 0.263874 0.59976 0.00176417 0.0164986 0.00709193 -0.220624 0.00125 354
1 0.249986 0.247749 0.00126825 0.00503066 -0.0105306 0.196426 0.00125 355
1 0.431869 0.226072 0.00125539 0.0172718 -6.4329e-07 0.196356 0.00125 356
1 0.417568 0.279893 0.00159303 -0.00349921 -0.00217538 -0.178663 0.00125 357
1 0.511161 0.41067 0.00139132 -0.0101104 -0.00457026 0.236843 0.00125 358
1 0.0263787 0.594831 0.00146405 0.00922825 -0.0184413 0.198138 0.00125 359
1 0.472513 0.107479 0.00153594 0.00324387 -0.00198839 0.105773 0.00125 360
1 0.184969 0.475095 0.00152184 -0.00482156 -0.000143444 -0.0610897 0.00125 361
1 0.518122 0.351481 0.00158557 0.0123645 0.00946328 -0.230973 0.00125 362
1 0.343385 0.554437 0.0013459 -0.00155783 0.0112024 0.225219 0.00125 363
1 0.549706 0.375419 0.0012738 -0.0151212 -0.00910129 0.253714 0.00125 364
1 0.566335 0.574144 0.00133449 0.0126974 0.000984173 -0.239639 0.00125 365
1 0.110769 0.292863 0.00142632 0.0136746 0.0400895 -0.221185 0.00125 366
1 0.182568 0.212781 0.00181413 -0.0106782 -2.04657e-05 -0.0911912 0.00125 367
1 0.122249 0.504234 0.0013495 0.00115978 -0.000130027 0.227545 0.00125 368
1 0.540964 0.136899 0.00123387 -0.000146176 0.00759824 0.137212 0.00125 369
1 0.552009 0.115983 0.00137749 0.00236516 -0.000175576 -0.238902 0.00125 370
1 0.298872 0.214318 0.00135436 0.0168202 -0.0119533 -0.23752 0.00125 371
1 0.35265 0.553841 0.00141906 0.000285775 0.00417716 0.248547 0.00125 372
1 0.320297 0.261423 0.00151451 0.00364791 -0.00480826 -0.238166 0.00125 373
1 0.0174453 0.0931373 0.00122675 -0.00191866 -0.00314605 -0.0193075 0.00125 374
1 0.562143 0.125622 0.0015121 0.00352754 0.00342465 0.0668478 0.00125 375
1 0.100054 0.262443 0.00151196 0.010725 0.00136751 -0.24011 0.00125 376
1 0.275577 0.518758 0.00140652 -0.0123859 0.00719269 0.112606 0.00125 377
1 0.278589 0.579928 0.0018709 -0.00114496 0.0091135 -0.0736168 0.00125 378
1 0.147348 0.170143 0.0017304 0.0130649 0.0226632 -0.0894208 0.00125 379
1 0.167915 0.268129 0.00136104 0.00528706 0.00106947 0.226395 0.00125 380
1 0.259749 0.143462 0.00171053 -0.00599696 -0.0113034 -0.032482 0.00125 381
1 0.445499 0.00109054 0.00157264 0.0377572 -0.011903 0.043406 0.00125 382
1 0.235109 0.247903 0.00221391 -0.00225256 -0.00268962 -0.177973 0.00125 383
1 0.13989 0.22423 0.00141768 0.000567162 0.00803616 -0.199839 0.00125 384
1 0.0432183 0.234316 0.00136945 -0.0113195 -0.00143577 -0.246187 0.00125 385
1 0.261504 0.539886 0.00230631 -0.0235529 -0.0126905 -0.0467645 0.00125 386
1 0.522309 0.387454 0.00146242 0.00484752 -0.0252547 0.0833414 0.00125 387
1 0.551388 0.421857 0.00141029 0.00226107 0.000435133 -0.230834 0.00125 388
1 0.472469 0.0257743 0.00159316 0.00496693 -0.0130693 -0.176618 0.00125 389
1 0.0411394 0.0980882 0.00139236 -0.0145612 -0.0523299 -0.0916639 0.00125 390
1 0.515986 0.594815 0.00164348 0.0005553 0.00149169 0.102064 0.00125 391
1 0.154606 0.18728 0.0020316 0.0104302 0.00500449 -0.0505798 0.00125 392
1 0.51043 0.439635 0.00159904 -0.0135774 -0.00778622 -0.23681 0.00125 393
1 0.161281 0.00647804 0.00136009 -0.0174823 -0.013682 0.2384 0.00125 394
1 0.0274237 0.51805 0.00153057 0.00615008 0.00340381 0.0590244 0.00125 395
1 0.386209 0.428204 0.00174097 0.00960131 0.00618505 -0.223024 0.00125 396
1 0.117772 0.41044 0.00147165 0.0138371 0.0144414 0.158428 0.00125 397