ITEM: TIMESTEP
1000000
ITEM: NUMBER OF ATOMS
10000
ITEM: BOX BOUNDS pp pp ff
0.0000000000000000e+00 2.9548487750000002e-01
0.0000000000000000e+00 2.9548487750000002e-01
-1.2500000000000001e-02 1.2500000000000001e-02
ITEM: ATOMS type x y z vx vy vz radius id
1 0.220873 0.000461256 0.00160803 -0.0272929 0.0321333 -0.0994346 0.00125 1
1 0.255638 0.286145 0.00243214 0.0214853 -0.0201976 -0.0548258 0.00125 2
1 0.176038 0.0303085 0.00136791 -0.00575227 0.00602304 -0.268266 0.00125 3
1 0.207298 0.00215496 0.00127958 0.0181182 -0.0253403 -0.171777 0.00125 4
1 0.0478147 0.19733 0.00126984 0.0282224 -0.067264 -0.189357 0.00125 5
1 0.225443 0.106043 0.00249817 -0.0312597 -0.00745395 -0.0421419 0.00125 6
1 0.103743 0.135297 0.00125607 0.0217737 -0.00850445 0.217269 0.00125 7
1 0.281016 0.0177278 0.00146714 -0.0184587 0.0101231 -0.249308 0.00125 8
1 0.161266 0.181844 0.00127029 0.0162774 0.00801312 -0.218588 0.00125 9
1 0.06773 0.0858005 0.00136021 0.0133161 -0.0156782 0.189913 0.00125 10
1 0.213888 0.246892 0.00165612 0.0460407 0.0253464 -0.217478 0.00125 11
1 0.130594 0.187721 0.00247397 0.0144413 0.00865488 -0.0833173 0.00125 12
1 0.00829971 0.0262555 0.00156524 0.0664782 0.0244462 -0.183158 0.00125 13
1 0.0600324 0.0280113 0.00125239 -0.0362832 0.0278096 -0.187943 0.00125 14
1 0.0350223 0.252391 0.00133685 0.0148278 0.0478171 0.183786 0.00125 15
1 0.0685102 0.025407 0.00137299 -0.0110413 0.00269763 0.210204 0.00125 16
1 0.293239 0.134739 0.0016894 0.0527123 -0.0621569 -0.142005 0.00125 17
1 0.0827284 0.280667 0.00140126 -0.0265861 0.024937 0.21467 0.00125 18
1 0.187226 0.211978 0.00136518 -0.0245708 0.0435106 -0.045424 0.00125 19
1 0.143966 0.0554708 0.00143956 -0.0224683 0.004079 0.109737 0.00125 20
1 0.0202812 0.174034 0.00141225 0.0124201 0.0809364 0.13619 0.00125 21
1 0.0994336 0.153294 0.00204027 -0.0399625 0.012717 -0.0749115 0.00125 22
1 0.157745 0.117831 0.00152425 -0.0214628 -0.0251045 0.20518 0.00125 23
1 0.233034 0.180112 0.00123509 0.00483246 0.00575242 -0.223076 0.00125 24
1 0.273662 0.261888 0.00207517 -0.0171276 0.00690641 -0.1783 0.00125 25
1 0.166736 0.147867 0.00225679 0.00737003 0.037371 -0.00333664 0.00125 26
1 0.261729 0.183551 0.00141973 -0.0517119 0.0607561 0.139031 0.00125 27
1 0.134191 0.104894 0.00173802 -0.0620847 -0.00213593 -0.136114 0.00125 28
1 0.183303 0.279814 0.00157898 -0.00306405 0.035858 -0.270174 0.00125 29
1 0.0590852 0.0817963 0.00149401 -0.0503799 0.000143347 -0.245898 0.00125 30
1 0.1885 0.230189 0.00188207 0.0422762 -0.0096668 -0.0993378 0.00125 31
1 0.200168 0.218474 0.0014627 -0.0195969 -0.0122672 -0.216202 0.00125 32
1 0.270827 0.15481 0.00132765 -0.00718385 0.0212495 0.185263 0.00125 33
1 0.0690468 0.0198128 0.00156764 -0.015377 0.00115107 0.115565 0.00125 34
1 0.25237 0.213447 0.00157582 -0.00488892 0.0192844 -0.223217 0.00125 35
1 0.0829243 0.0593968 0.00211947 -0.0161433 -0.0309829 -0.0738724 0.00125 36
1 0.0354111 0.286499 0.00232264 0.00961966 0.0392904 -0.0391912 0.00125 37
1 0.0997651 0.0251394 0.00145552 0.0302178 0.0158789 0.189968 0.00125 38
1 0.257508 0.167552 0.00137001 0.029633 -0.00257994 -0.248007 0.00125 39
1 0.155794 0.0469559 0.00164764 0.00895846 0.101112 -0.162083 0.00125 40
1 0.153592 0.293625 0.0012822 0.0554145 -0.0325681 -0.233419 0.00125 41
1 0.114764 0.286996 0.00214275 -0.0263625 -0.0339883 -0.0801422 0.00125 42
1 0.261259 0.269166 0.00140206 0.0212587 -0.00804956 -0.218102 0.00125 43
1 0.0897482 0.219064 0.00135058 0.0213889 0.00412171 -0.278706 0.00125 44
1 0.190082 0.0328791 0.00176946 0.00828801 0.0826103 -0.172383 0.00125 45
1 0.281553 0.165675 0.00137295 -0.00815531 -0.025295 -0.187934 0.00125 46
1 0.22906 0.214943 0.00226215 0.0300515 0.0168898 -0.139879 0.00125 47
1 0.0162461 0.15355 0.00187607 0.0293455 0.00668546 -0.076444 0.00125 48
1 0.00140531 0.104059 0.00124729 -0.0240477 -0.0273025 -0.217633 0.00125 49
1 0.00533426 0.292188 0.00153593 0.0318867 0.0469105 0.062695 0.00125 50
1 0.228761 0.0858692 0.0021252 -0.0309296 -0.089311 -0.0466373 0.00125 51
1 0.230114 0.0648195 0.00241512 0.00415029 0.0417532 -0.0445785 0.00125 52
1 0.191889 0.0400544 0.001503 0.017432 -0.0120822 0.220551 0.00125 53
1 0.0769115 0.20118 0.00135259 -0.0864046 0.00410206 0.116185 0.00125 54
1 0.234796 0.286943 0.00146634 0.015093 -0.0289867 -0.242703 0.00125 55
1 0.120091 0.132857 0.00160373 -0.0382184 0.0526455 0.0614871 0.00125 56
1 0.271838 0.0373419 0.00142098 -0.0231362 -0.0253735 -0.240582 0.00125 57
1 0.179345 0.177675 0.00128325 -0.0120381 0.049724 0.239911 0.00125 58
1 0.0758875 0.139412 0.00150446 -0.0170117 -0.0134585 -0.224583 0.00125 59
1 0.252928 0.0642445 0.00139508 -0.00159956 0.00820706 -0.241177 0.00125 60
1 0.100162 0.115963 0.00148388 0.0410006 0.0104249 -0.192064 0.00125 61
1 0.23643 0.289957 0.00191782 -0.0352337 0.0141739 -0.0447142 0.00125 62
1 0.0630062 0.0631539 0.00176771 0.0165284 -0.00822209 -0.258183 0.00125 63
1 0.109004 0.0288788 0.00147376 -0.00213324 0.0404832 -0.235083 0.00125 64
1 0.0603056 0.230052 0.00132004 -0.0133431 0.0385095 -0.231315 0.00125 65
1 0.245688 0.214565 0.00140919 0.00626166 0.0368256 -0.226571 0.00125 66
1 0.217788 0.191104 0.00125909 0.0174987 -0.0806514 -0.289067 0.00125 67
1 0.158287 0.0783695 0.00133681 -0.0176192 0.0897275 -0.205199 0.00125 68
1 0.00216265 0.239432 0.00137482 0.00570708 0.0392237 -0.207234 0.00125 69
1 0.215415 0.289385 0.00227566 -0.0806102 0.0179306 -0.12338 0.00125 70
1 0.0236806 0.228369 0.00137468 0.00887453 -0.0212277 -0.201344 0.00125 71
1 0.00764654 0.175393 0.00166543 0.0113816 0.00584896 0.139668 0.00125 72
1 0.115867 0.0458408 0.0013425 0.0328613 0.00338256 -0.274088 0.00125 73
1 0.0493196 0.0147167 0.00123073 -0.00362103 0.00892225 -0.0251742 0.00125 74
1 0.202844 0.194261 0.00202812 -0.0236214 -0.0159899 -0.222702 0.00125 75
1 0.270098 0.191644 0.00181538 0.0312658 -0.0227056 -0.19465 0.00125 76
1 0.11988 0.179812 0.00238566 -0.0717795 0.011877 0.0167706 0.00125 77
1 0.288858 0.243544 0.00166965 -0.0313938 -0.0381386 0.052401 0.00125 78
1 0.0614598 0.12859 0.00125774 -0.00381494 0.0527002 -0.28365 0.00125 79
1 0.184289 0.211599 0.0024118 0.0522171 0.0366669 -0.00130559 0.00125 80
1 0.131268 0.0703665 0.00129353 0.0177408 0.0357576 -0.242832 0.00125 81
1 0.0601569 0.262916 0.0024167 -0.0660189 0.0474357 -0.0861316 0.00125 82
1 0.197367 0.27271 0.00125946 -0.00572842 -0.0257182 0.178328 0.00125 83
1 0.0713101 0.158062 0.00135533 0.0701602 0.0439485 -0.105255 0.00125 84
1 0.12623 0.128413 0.00194836 -0.0674174 -0.0414273 -0.0662476 0.00125 85
1 0.249524 0.277183 0.00135567 0.0104928 0.00414566 -0.245313 0.00125 86
1 0.154843 0.162557 0.00222004 -0.043251 -0.00491121 -0.07527 0.00125 87
1 0.266088 0.0154354 0.0012418 -0.0174193 0.0119644 0.233561 0.00125 88
1 0.0864273 0.0166943 0.0012295 0.00572108 -0.0113171 0.0282923 0.00125 89
1 0.0460855 0.20162 0.00131278 -0.00704622 0.0221792 0.257379 0.00125 90
1 0.0349824 0.282287 0.00124566 0.0260345 0.00395284 0.252137 0.00125 91
1 0.258835 0.21157 0.00139728 0.0403905 0.0155258 -0.274617 0.00125 92
1 0.229352 0.149072 0.00150108 0.0113855 0.031615 0.169101 0.00125 93
1 0.134259 0.270784 0.00126923 -0.0344867 0.0436546 0.0377336 0.00125 94
1 0.100652 0.130116 0.0017593 0.00217521 0.00164463 -0.100042 0.00125 95
1 0.0932002 0.0280052 0.00130275 0.00551084 -0.0336223 0.164048 0.00125 96
1 0.0861714 0.0992939 0.00198097 -0.00208038 -0.015857 -0.212378 0.00125 97
1 0.148208 0.0654302 0.00205477 0.00667056 -0.0433586 -0.0420931 0.00125 98
1 0.0954086 0.132958 0.00209173 -0.00464118 -0.00529353 -0.1459 0.00125 99
1 0.181804 0.104945 0.00152405 0.0569442 0.0173453 -0.202033 0.00125 100
1 0.0552977 0.247688 0.00173201 0.0505699 0.0497846 -0.0559753 0.00125 101
1 0.0532414 0.0752452 0.00139464 0.0699475 -0.0227569 -0.255979 0.00125 102
1 0.00636411 0.106348 0.0016466 0.0044398 -0.00200161 0.14189 0.00125 103
1 0.23421 0.110128 0.00133855 -0.0185885 -0.00491733 -0.154198 0.00125 104
1 0.119604 0.276364 0.00134863 -0.0324127 -0.0288771 0.147243 0.00125 105
1 0.0823845 0.0736155 0.00221992 0.00185318 -0.0310986 -0.0323054 0.00125 106
1 0.220523 0.04547 0.00140102 -0.00444616 -0.0234011 -0.0492935 0.00125 107
1 0.0986491 0.0559898 0.00165136 0.0327987 0.0302547 -0.188662 0.00125 108
1 0.110103 0.00408956 0.00126276 0.0122799 -0.0126426 -0.0009993 0.00125 109
1 0.144096 0.159547 0.00250415 0.0601086 -0.0182754 0.0465405 0.00125 110
1 0.16155 0.118329 0.00126528 0.106659 -0.103499 -0.264831 0.00125 111
1 0.219636 0.0195082 0.00133354 0.00983944 -0.0160143 0.212134 0.00125 112
1 0.011861 0.219713 0.00128419 0.0159452 -0.0182128 0.225826 0.00125 113
1 0.241255 0.145646 0.00236771 -0.0191146 -0.0173301 -0.0340721 0.00125 114
1 0.238864 0.162803 0.00210579 -0.0145312 -0.0717128 -0.0315171 0.00125 115
1 0.24091 0.217349 0.00222784 0.0169075 0.0219052 -0.0596566 0.00125 116
1 0.159024 0.0734363 0.00128704 0.0246862 0.0365013 0.123331 0.00125 117
1 0.108055 0.115594 0.00140445 0.0285656 -0.00165716 0.0302366 0.00125 118
1 0.174585 0.158978 0.00169077 0.000471902 -0.0469497 -0.201963 0.00125 119
1 0.0729485 0.21642 0.0016242 0.0563066 -0.0322604 -0.0964156 0.00125 120
1 0.0637928 0.237067 0.00234082 0.0417067 -0.0203231 0.00169883 0.00125 121
1 0.021781 0.0407174 0.00136423 -0.0113971 0.00215593 0.223903 0.00125 122
1 0.230695 0.103278 0.00125888 -0.00480912 -0.0135731 0.199646 0.00125 123
1 0.200308 0.135346 0.00126353 0.0205315 0.0368876 0.0236075 0.00125 124
1 0.0465773 0.00565347 0.00229209 0.0417643 -0.0797185 -0.051245 0.00125 125
1 0.17282 0.0784003 0.00151122 0.0340201 -0.0267204 0.147761 0.00125 126
1 0.176247 0.0622367 0.00135536 -0.0284381 0.0667557 0.136441 0.00125 127
1 0.120336 0.0326718 0.0018104 0.00625954 0.00154522 -0.229756 0.00125 128
1 0.258695 0.259377 0.00179081 -0.0388201 -0.026054 -0.0556735 0.00125 129
1 0.211675 0.232529 0.00228811 -0.0288997 -0.0235747 -0.0848082 0.00125 130
1 0.157572 0.208438 0.00125039 -0.0189354 -0.00885895 0.00899767 0.00125 131
1 0.0365638 0.0765919 0.00135819 0.0157427 -0.0213323 0.214474 0.00125 132
1 0.0232784 0.128603 0.00134685 -0.0567762 0.052693 -0.1877 0.00125 133
1 0.0680308 0.223786 0.00129745 0.0374673 0.0822959 0.215787 0.00125 134
1 0.161492 0.110333 0.00176026 0.0640162 -0.00316845 -0.10789 0.00125 135
1 0.232519 0.0449999 0.00144305 0.0262968 0.00150247 0.180167 0.00125 136
1 0.143483 0.221468 0.00246783 -0.0200051 0.00687295 -0.0385933 0.00125 137
1 0.119678 0.108727 0.00244164 -0.0154741 0.0157765 -0.0270388 0.00125 138
1 0.193029 0.0654016 0.00154023 0.010931 -0.0194872 -0.251581 0.00125 139
1 0.00755874 0.251366 0.0020331 0.0166042 0.0319962 -0.0963794 0.00125 140
1 0.125517 0.280027 0.00125518 0.0398742 -0.0258475 0.131411 0.00125 141
1 0.0795327 0.0257468 0.00220878 -0.0413804 -0.00477586 0.00313825 0.00125 142
1 0.24648 0.0621924 0.00164687 -0.0193335 -0.00807529 -0.274631 0.00125 143
1 0.114014 0.0674051 0.00190787 0.00106459 0.0361314 -0.0417072 0.00125 144
1 0.00753948 0.290742 0.00144797 -0.0716435 0.0419776 -0.253494 0.00125 145
1 0.278252 0.0848474 0.00232606 0.0133341 0.0810834 -0.128409 0.00125 146
1 0.0209296 0.22932 0.00175387 0.0297411 -0.0396354 -0.220536 0.00125 147
1 0.0989316 0.0587977 0.00134584 0.0575218 0.0751921 -0.115016 0.00125 148
1 0.272167 0.12692 0.00135928 -0.0204284 -0.0179599 0.15493 0.00125 149
1 0.182153 0.260861 0.00179771 -0.000792456 -0.0125168 -0.0501301 0.00125 150
1 0.222134 0.0216429 0.00156769 -0.0334796 -0.100734 -0.199273 0.00125 151
1 0.258259 0.142214 0.00168782 0.00973205 0.00710445 -0.275436 0.00125 152
1 0.275883 0.0585677 0.00229326 -0.0256663 0.0100926 -0.00381958 0.00125 153
1 0.119433 0.0355287 0.00157343 -0.0425548 -0.0157071 -0.0699731 0.00125 154
1 0.185358 0.160913 0.00227336 0.0315573 0.0143106 -0.133186 0.00125 155
1 0.0779981 0.222561 0.0013988 0.0465681 0.0259765 -0.241359 0.00125 156
1 0.0682291 0.212534 0.00233636 0.000191653 -0.0102783 -0.0132996 0.00125 157
1 0.261056 0.186702 0.00156917 0.00947222 -0.00194751 -0.241026 0.00125 158
1 0.14914 0.0878734 0.00132728 -0.0129449 -0.0416899 0.163937 0.00125 159
1 0.140702 0.0320907 0.00146246 0.041663 -6.50264e-05 -0.246839 0.00125 160
1 0.00515988 0.264133 0.00138777 0.052478 -0.0499989 -0.229436 0.00125 161
1 0.182718 0.213607 0.00124045 0.0259674 0.0604089 -0.0759736 0.00125 162
1 0.251948 0.0887677 0.0013417 -0.00834777 -0.0121753 0.208042 0.00125 163
1 0.139561 0.0122988 0.00174117 0.0204013 0.0339175 -0.164831 0.00125 164
1 0.0624219 0.18597 0.00159013 0.0918822 -0.0398727 -0.098784 0.00125 165
1 0.169327 0.223483 0.00128055 0.000508352 0.00765245 0.206115 0.00125 166
1 0.184098 0.0345835 0.0013527 -0.0529621 0.00282955 -0.093922 0.00125 167
1 0.286661 0.180231 0.00165223 -0.0300796 0.0151224 -0.183574 0.00125 168
1 0.291375 0.143486 0.00152123 -0.016522 0.0204544 0.13989 0.00125 169
1 0.0945458 0.281141 0.00128724 0.0231187 -0.0184103 0.239299 0.00125 170
1 0.213038 0.29426 0.00136106 -0.0416669 -0.019747 0.22825 0.00125 171
1 0.0123362 0.211734 0.00136465 -0.0282125 -0.147507 0.165482 0.00125 172
1 0.249941 0.0224374 0.00135555 -0.0179817 -0.00228995 -0.252522 0.00125 173
1 0.117256 0.0847778 0.00240031 -0.0768601 -0.0174572 -0.0987563 0.00125 174
1 0.0570591 0.102572 0.00228937 0.0391497 -0.0383641 -0.109165 0.00125 175
1 0.169934 0.135042 0.0013337 0.0398918 -0.0417955 -0.271683 0.00125 176
1 0.0626538 0.198067 0.00141275 0.0915328 -0.0135511 -0.114608 0.00125 177
1 0.0599146 0.280722 0.00147883 0.0432306 0.0446297 -0.168769 0.00125 178
1 0.27624 0.242239 0.00138007 0.0132556 -0.00548482 0.135306 0.00125 179
1 0.148541 0.122947 0.00251223 -0.0194826 -0.0599854 -0.0103466 0.00125 180
1 0.189905 0.156748 0.00132023 -0.0244078 -0.00272809 -0.268642 0.00125 181
1 0.0289091 0.152166 0.00158211 0.000132765 0.00914231 0.127106 0.00125 182
1 0.137437 0.257361 0.00193746 0.003305 -0.0147281 -0.125517 0.00125 183
1 0.0592522 0.0600793 0.00131825 0.0316166 -0.00381186 0.157947 0.00125 184
1 0.263857 0.0981135 0.00175922 -0.00763206 -0.00811555 -0.227222 0.00125 185
1 0.0726678 0.0335916 0.00225145 0.0449988 0.0921623 -0.0586701 0.00125 186
1 0.207716 0.264234 0.0017156 0.066012 -0.0535423 -0.178175 0.00125 187
1 0.0608149 0.0109136 0.0014057 0.00752308 0.00849304 0.2461 0.00125 188
1 0.292519 0.258964 0.00170008 -0.0269896 -0.0316188 -0.22735 0.00125 189
1 0.224338 0.0740361 0.00248537 0.0322137 -0.0259544 -0.0503487 0.00125 190
1 0.00161876 0.187956 0.00122745 -0.0708844 0.079222 -0.0536658 0.00125 191
1 0.203392 0.0268449 0.00146007 0.00767634 0.0152231 -0.195365 0.00125 192
1 0.0300477 0.265807 0.00201337 0.055203 -0.0944291 -0.0361031 0.00125 193
1 0.191765 0.266698 0.00162417 0.0357229 -0.00262503 0.111316 0.00125 194
1 0.0367013 0.036062 0.00124636 0.0133604 0.00865722 0.0244829 0.00125 195
1 0.127328 0.0903555 0.00216225 -0.0416712 0.038074 -0.0227637 0.00125 196
1 0.237349 0.0570656 0.0012945 -0.0259513 0.018415 0.246661 0.00125 197
1 0.254726 0.235744 0.00150966 0.00159717 -0.0549191 -0.078457 0.00125 198
1 0.0492627 0.290629 0.00196446 -0.00908244 0.035022 -0.135639 0.00125 199
1 0.0925822 0.262653 0.00203825 -0.0119567 0.0416532 -0.0932906 0.00125 200
1 0.13477 0.0862608 0.00205068 0.0606975 -0.00167189 0.00263539 0.00125 201
1 0.196695 0.124957 0.00136175 -0.00626465 0.0190027 -0.27796 0.00125 202
1 0.0166731 0.057325 0.00166688 0.0141422 0.0202984 0.133152 0.00125 203
1 0.0449841 0.0619423 0.00242385 -0.015608 -0.0223002 0.00746916 0.00125 204
1 0.225178 0.208235 0.00163377 0.00456536 -0.0227921 -0.19465 0.00125 205
1 0.117429 0.0547965 0.00151839 -0.00649966 -0.0485919 -0.190191 0.00125 206
1 0.0716806 0.257188 0.00175289 0.0176016 0.0164821 -0.0748431 0.00125 207
1 0.259275 0.184348 0.00146242 0.0340325 -0.04955 -0.234692 0.00125 208
1 0.0129979 0.140458 0.00152689 0.0521257 0.0336203 -0.179884 0.00125 209
1 0.182381 0.225131 0.00223071 -0.0157676 0.0424421 -0.1536 0.00125 210
1 0.0998834 0.23712 0.0016701 -0.0471019 0.0191407 -0.100858 0.00125 211
1 0.232299 0.027742 0.00157299 -0.030355 0.00151432 -0.249126 0.00125 212
1 0.0974998 0.021353 0.00128824 -0.0446074 0.00505185 0.225319 0.00125 213
1 0.210863 0.104483 0.00137418 -0.0256557 -0.034393 0.158814 0.00125 214
1 0.0731615 0.0530589 0.0014476 0.0142805 0.0397412 -0.239677 0.00125 215
1 0.128929 0.117759 0.00158058 -0.00322645 -0.0265943 -0.189616 0.00125 216
1 0.278635 0.0768371 0.001635 0.0127188 0.00326093 -0.191558 0.00125 217
1 0.0704975 0.253503 0.00208964 0.0111661 -0.00665357 -0.0846637 0.00125 218
1 0.049813 0.115527 0.00191291 -0.0344033 0.0796259 -0.0271139 0.00125 219
1 0.17694 0.277842 0.00161932 -0.0460085 -0.0961089 -0.0628366 0.00125 220
1 0.113499 0.205676 0.00177107 0.00833804 -0.0309634 -0.19802 0.00125 221
1 0.142128 0.100102 0.00172077 -0.0206074 0.0163752 -0.166984 0.00125 222
1 0.15925 0.0703399 0.00211463 0.0922695 -0.0643367 -0.116962 0.00125 223
1 0.0688833 0.00959831 0.00232074 0.00752367 -0.0274148 -0.120374 0.00125 224
1 0.192427 0.227576 0.001352 -0.0162656 -0.0524098 0.170546 0.00125 225
1 0.13754 0.0955996 0.00232465 -0.00308706 -0.0848468 -0.0011922 0.00125 226
1 0.0408361 0.127078 0.00214974 -0.00160743 0.0736165 -0.045575 0.00125 227
1 0.182226 0.0361577 0.00219884 -0.0462001 -0.0181031 -0.16374 0.00125 228
1 0.216972 0.196453 0.00127161 -0.0189695 0.00954181 0.118967 0.00125 229
1 0.285827 0.221991 0.00130175 -0.0400322 0.00446147 -0.237451 0.00125 230
1 0.11483 0.1612 0.00189908 0.0141104 -0.016997 -0.0372502 0.00125 231
1 0.172465 0.123122 0.00241555 -0.0275768 -0.0154589 -0.0355709 0.00125 232
1 0.221493 0.100353 0.00149472 -0.0118182 -0.0477288 0.18171 0.00125 233
1 0.137875 0.0787013 0.00228038 0.0499614 -0.00254863 -0.0650261 0.00125 234
1 0.213343 0.0977182 0.00160516 0.074769 -0.0766683 -0.205633 0.00125 235
1 0.211891 0.186129 0.00132123 -0.0174972 -0.00394852 0.109616 0.00125 236
1 0.12635 0.195318 0.00134152 -0.0580938 0.00811287 0.222655 0.00125 237
1 0.058074 0.286506 0.00122884 0.00574433 0.0249239 0.150665 0.00125 238
1 0.151415 0.0891729 0.00191003 -0.0108616 -0.00769738 -0.0747873 0.00125 239
1 0.104327 0.0858041 0.00209837 -0.0116741 -0.0141622 -0.0563897 0.00125 240
1 0.159809 0.0916209 0.00243799 0.00239544 0.00698339 -0.0495319 0.00125 241
1 0.288228 0.144529 0.00132953 0.0067568 0.0300766 0.0546319 0.00125 242
1 0.065633 0.0434395 0.00224841 0.0707156 0.027337 -0.0380701 0.00125 243
1 8.26877e-05 0.163607 0.00135658 -0.0284284 0.0825565 -0.277738 0.00125 244
1 0.242653 0.183164 0.00134663 -0.0250076 0.0805972 0.129255 0.00125 245
1 0.19977 0.155423 0.00221895 0.0499834 0.0145267 -0.0497965 0.00125 246
1 0.100007 0.0832816 0.00145289 -0.0169636 -0.0122296 0.13862 0.00125 247
1 0.239373 0.103929 0.00170473 -0.00538045 0.0363247 -0.231013 0.00125 248
1 0.237169 0.152609 0.00140298 0.0389491 -0.0318199 0.155226 0.00125 249
1 0.0621622 0.141849 0.00123583 -0.00984793 0.0334963 -0.158068 0.00125 250
1 0.0554785 0.000221489 0.00170813 0.0118039 -0.052667 -0.103767 0.00125 251
1 0.10216 0.153598 0.00136241 0.00721933 0.0378304 -0.197196 0.00125 252
1 0.251398 0.160959 0.00136575 -0.00403927 -0.0158088 -0.261084 0.00125 253
1 0.00263326 0.0421881 0.00136925 0.0138536 -0.0311025 -0.150573 0.00125 254
1 0.0118199 0.00533651 0.00204741 -0.0214102 0.00454491 -0.138751 0.00125 255
1 0.234516 0.152572 0.00128228 0.051221 0.0156441 -0.264951 0.00125 256
1 0.0894666 0.249841 0.00237209 0.0210655 0.00967116 0.00696642 0.00125 257
1 0.1832 0.102783 0.00238267 0.0316474 -0.0341758 -0.0334498 0.00125 258
1 0.0161231 0.295165 0.00181483 -0.102496 -0.0304223 -0.189273 0.00125 259
1 0.252017 0.0253818 0.00124071 -0.0130655 -0.034466 0.249449 0.00125 260
1 0.0665386 0.28665 0.00168018 0.00938303 -0.0791424 -0.0636977 0.00125 261
1 0.286922 0.0288177 0.00158548 -0.0707077 0.0633077 0.036891 0.00125 262
1 0.0145511 0.0224499 0.00177883 -0.0132449 -0.0297523 -0.207005 0.00125 263
1 0.100255 0.0536096 0.00143509 0.0288587 -0.0622026 0.166903 0.00125 264
1 0.273503 0.0704516 0.00144585 0.0740594 -0.00395746 0.173417 0.00125 265
1 0.0955257 0.292603 0.00128602 -0.0748009 0.0493707 -0.196827 0.00125 266
1 0.0277293 0.118384 0.0015093 -0.0362112 0.0518137 -0.191519 0.00125 267
1 0.119972 0.0845356 0.00195229 -0.049226 -0.0653021 -0.182545 0.00125 268
1 0.240629 0.0475639 0.00150304 0.0423809 0.0458282 -0.242678 0.00125 269
1 0.114904 0.21601 0.0013161 -0.00662969 -0.00762982 -0.237111 0.00125 270
1 0.158292 0.183331 0.00137211 0.0316992 0.010941 0.168877 0.00125 271
1 0.0927476 0.00677017 0.00135879 -0.0174056 -0.0100589 -0.212254 0.00125 272
1 0.125368 0.237819 0.00127947 -0.016577 -0.00236829 0.11425 0.00125 273
1 0.00456512 0.146831 0.00163251 -0.0117274 -0.0128298 -0.284453 0.00125 274
1 0.0519785 0.0626584 0.00140066 0.0432284 -0.0316701 -0.215525 0.00125 275
1 0.0405456 0.0467295 0.00143856 -0.0600358 -0.0128207 0.156194 0.00125 276
1 0.193452 0.00138379 0.00129725 -0.0270547 -0.0260989 -0.228531 0.00125 277
1 0.177124 0.159948 0.00147812 0.0048412 0.013264 -0.261423 0.00125 278
1 0.287394 0.0346195 0.00245727 -0.0090782 -0.0531065 -0.0332266 0.00125 279
1 0.267998 0.177245 0.00149228 -0.0187072 0.0088154 0.190123 0.00125 280
1 0.0085488 0.130714 0.00157708 -0.010811 0.00612881 -0.0137437 0.00125 281
1 0.207896 0.117331 0.00241634 0.0381804 0.0434684 -0.0849755 0.00125 282
1 0.281676 0.218193 0.00240166 -0.0301664 -0.00593037 -0.095592 0.00125 283
1 0.115548 0.117498 0.00128097 -0.0262893 0.0135975 0.0206842 0.00125 284
1 0.175558 0.0732862 0.00130058 0.0233026 0.00647938 0.194341 0.00125 285
1 0.209335 0.170195 0.00223937 0.011138 0.0328868 -0.0525335 0.00125 286
1 0.170611 0.190865 0.00168979 0.0275832 -0.0247787 0.121161 0.00125 287
1 0.22787 0.156543 0.00150086 0.033552 0.0589008 0.174416 0.00125 288
1 0.0945198 0.220707 0.00123583 -0.054114 0.0431711 0.161447 0.00125 289
1 0.0802056 0.2842 0.00172587 -0.0148619 -0.000446569 -0.134937 0.00125 290
1 0.242776 0.109437 0.00160898 -0.0127075 0.0120004 -0.208329 0.00125 291
1 0.0497295 0.284571 0.00135611 -0.0254287 0.0140685 -0.302768 0.00125 292
1 0.198468 0.0521416 0.00239318 0.0155443 -0.0683017 -0.0503725 0.00125 293
1 0.176246 0.0381674 0.00130052 0.00738922 -0.0754109 -0.253967 0.00125 294
1 0.185109 0.175625 0.00155498 0.0347197 0.0118281 -0.00373359 0.00125 295
1 0.0331659 0.0636196 0.00144665 -0.0358138 0.00865 0.175764 0.00125 296
1 0.243846 0.241071 0.00221046 0.00641152 0.10199 -0.159481 0.00125 297
1 0.150715 0.181167 0.00143885 -0.0525347 0.01147 -0.226231 0.00125 298
1 0.289979 0.108964 0.00191327 0.00577176 0.0339295 -0.205047 0.00125 299
1 0.0194145 0.123846 0.00122845 -0.0062887 -0.00163556 -0.0262803 0.00125 300
1 0.20269 0.0887715 0.00138541 -0.0264753 0.0219336 0.00924356 0.00125 301
1 0.271214 0.170565 0.00191406 0.0263636 0.00814394 -0.0628742 0.00125 302
1 0.186712 0.150424 0.00154913 0.080072 -0.033534 0.0727263 0.00125 303
1 0.18012 0.0616382 0.00201751 0.0108395 -0.0645296 -0.122762 0.00125 304
1 0.00938067 0.110807 0.00219807 0.00435748 -0.0915732 -0.0135586 0.00125 305
1 0.190533 0.150642 0.00129065 -0.0203013 -0.0113939 0.235462 0.00125 306
1 0.0604904 0.0990088 0.00155684 0.0381216 -0.00372446 -0.0845262 0.00125 307
1 0.118314 0.219744 0.00153652 0.00725728 -0.0127721 -0.248094 0.00125 308
1 0.229038 0.239154 0.00189534 -0.0135377 -0.00508811 -0.217603 0.00125 309
1 0.185405 0.213815 0.00143361 -0.0214806 -0.0310991 0.182996 0.00125 310
1 0.209773 0.287452 0.00140067 0.00941344 -0.0386089 -0.253462 0.00125 311
1 0.0471016 0.0372134 0.00177207 0.015433 0.00988377 -0.110101 0.00125 312
1 0.202413 0.287689 0.0019185 0.0185481 -0.0538051 -0.0732422 0.00125 313
1 0.151539 0.0992662 0.00190301 -0.0106845 -0.00908159 -0.05426 0.00125 314
1 0.0435507 0.235856 0.00137019 0.00207606 -0.0317593 0.110266 0.00125 315
1 0.0904698 0.24486 0.00186453 0.00702418 0.0227458 -0.204058 0.00125 316
1 0.283008 0.260868 0.00203771 -0.0897351 -0.0914634 -0.179012 0.00125 317
1 0.0348399 0.108134 0.00156484 -0.00630302 -0.0317164 0.134785 0.00125 318
1 0.0879271 0.154282 0.00128655 -0.00796194 -0.0159886 -0.0156131 0.00125 319
1 0.18647 0.280293 0.00152716 0.00315925 0.000909888 -0.235665 0.00125 320
1 0.0460394 0.118677 0.00239942 0.0565197 0.00292295 -0.0704074 0.00125 321
1 0.193645 0.0583783 0.00161846 0.0204706 -0.0037342 -0.219046 0.00125 322
1 0.18762 0.256728 0.00152877 -0.000552586 0.0119182 -0.236272 0.00125 323
1 0.0735329 0.0132973 0.00137517 -0.0144983 0.00175926 0.25787 0.00125 324
1 0.161277 0.275238 0.00150743 -0.185298 0.0272003 0.0344223 0.00125 325
1 0.0758748 0.0263689 0.00139794 -0.0782779 -0.0667547 0.0561729 0.00125 326
1 0.0700877 0.0339624 0.00192848 0.0342353 0.0202766 -0.121721 0.00125 327
1 0.0370259 0.0252894 0.0014987 0.0390011 -0.0517248 -0.190332 0.00125 328
1 0.247787 0.184096 0.00131669 0.0103035 -0.121127 0.223902 0.00125 329
1 0.126532 0.149671 0.00191089 0.0227029 -0.0332204 -0.106896 0.00125 330
1 0.137224 0.205702 0.00153629 -0.00129771 0.0221587 -0.257697 0.00125 331
1 0.0368888 0.0120145 0.00131472 -0.0300202 -0.015114 -0.24771 0.00125 332
1 0.185294 0.222109 0.00221256 -0.031107 -0.0731048 0.0372516 0.00125 333
1 0.271276 0.233874 0.0013522 0.0307619 -0.0716811 0.182082 0.00125 334
1 0.0435369 0.269173 0.00177913 0.0285774 0.0115615 -0.240195 0.00125 335
1 0.259563 0.10828 0.00130262 -0.023819 -0.0308876 -0.303924 0.00125 336
1 0.169666 0.148599 0.00144849 -0.00112419 0.00779669 0.215691 0.00125 337
1 0.097386 0.0299552 0.00150801 0.0207054 0.00584811 0.13677 0.00125 338
1 0.0428744 0.289096 0.00128609 -0.0266488 -0.00123348 0.0582239 0.00125 339
1 0.092245 0.0662005 0.00177507 -0.0466157 0.074106 -0.137814 0.00125 340
1 0.122027 0.220615 0.00188814 0.0281445 0.0256318 -0.209002 0.00125 341
1 0.0577863 0.0153013 0.00233831 0.0205637 0.00208863 -0.0487457 0.00125 342
1 0.127765 0.223082 0.00157921 -0.0313016 -0.00543678 -0.0947611 0.00125 343
1 0.286674 0.256405 0.00189265 -0.132149 0.0626418 -0.145968 0.00125 344
1 0.252316 0.0208082 0.00218278 -7.01231e-05 0.00241962 -0.0571325 0.00125 345
1 0.245917 0.203417 0.0013341 -0.0165448 -0.059287 -0.121834 0.00125 346
1 0.125969 0.0479289 0.00247081 -0.0856552 -0.0280497 -0.0284669 0.00125 347
1 0.184921 0.190046 0.00196169 0.0335897 -0.0501298 -0.207923 0.00125 348
1 0.0162865 0.125523 0.00173877 0.00929578 -0.0174587 0.142538 0.00125 349
1 0.26781 0.129897 0.00141868 0.0291972 0.0349905 0.109168 0.00125 350
1 0.0877424 0.182232 0.00225088 -0.0264076 -0.043185 -0.143847 0.00125 351
1 0.118573 0.23841 0.00125045 -0.0336363 -0.0195867 0.203311 0.00125 352
1 0.112047 0.0349737 0.00138576 0.0122234 0.0282224 0.116862 0.00125 353
1 0.112415 0.21557 0.0015348 0.0748447 -0.113139 0.0681683 0.00125 354
1 0.150911 0.251757 0.00158726 0.0582672 -0.0190287 0.0407035 0.00125 355
1 0.147579 0.109094 0.00158168 0.00497214 0.013528 -0.0980146 0.00125 356
1 0.094248 0.272777 0.0012981 -0.0155881 0.0279606 0.196816 0.00125 357
1 0.053433 0.0537427 0.00126799 0.0119135 0.0350538 -0.244835 0.00125 358
1 0.242152 0.0516983 0.0016222 0.069338 0.00506738 -0.253859 0.00125 359
1 0.0479953 0.0492612 0.00128164 -0.00209395 -0.0233258 0.255056 0.00125 360
1 0.187175 0.177021 0.00130217 0.0700628 -0.0260755 -0.241659 0.00125 361
1 0.12288 0.0960529 0.00163928 -0.0823008 -0.0152767 -0.0921316 0.00125 362
1 0.0656467 0.141372 0.00142612 0.00708463 -0.0122122 -0.245989 0.00125 363
1 0.182473 0.192314 0.00249871 -0.0463256 0.000458002 -0.0134597 0.00125 364
1 0.0798247 0.261654 0.00179946 0.0645378 0.0438962 -0.0620953 0.00125 365
1 0.111117 0.204353 0.00148262 0.0238665 -0.00784406 -0.20145 0.00125 366
1 0.261747 0.0399333 0.0013752 0.008963 0.015332 0.253697 0.00125 367
1 0.0428085 5.92323e-05 0.00144303 0.018389 0.0957709 0.053383 0.00125 368
1 0.289854 0.0604399 0.00133345 -0.0358159 0.0210068 0.144812 0.00125 369
1 0.215557 0.0354217 0.00128703 -0.00328587 -0.00605353 -0.235265 0.00125 370
1 0.111287 0.28135 0.00174253 0.0338168 0.087833 -0.239722 0.00125 371
1 0.146915 0.240302 0.00133688 0.079393 0.0991271 -0.215219 0.00125 372
1 0.158447 0.285011 0.00152077 -0.019519 -0.0182551 -0.171947 0.00125 373
1 0.201441 0.102034 0.00244223 0.00125442 0.0442307 -0.0762273 0.00125 374
1 0.0813374 0.286813 0.00126767 0.0347802 0.0273608 -0.0493801 0.00125 375
1 0.267465 0.1681 0.00124385 0.0807112 -0.0127547 -0.191591 0.00125 376
1 0.100729 0.187251 0.00176846 -0.0710033 -0.0322294 -0.0592527 0.00125 377
1 0.19078 0.0745449 0.00135368 -0.0257256 0.0601778 0.180054 0.00125 378
1 0.0343038 0.223434 0.00169531 -0.0311252 0.0342179 -0.257431 0.00125 379
1 0.218012 0.27002 0.00137613 0.0233376 -0.00196945 0.17155 0.00125 380
1 0.00843861 0.185814 0.00205923 -0.0151512 -0.0270628 -0.154135 0.00125 381
1 0.209661 0.247629 0.0020645 0.0177876 0.0220917 -0.00245665 0.00125 382
1 0.196941 0.0276292 0.00138831 -0.0366501 -0.0530113 0.162911 0.00125 383
1 0.286792 0.233818 0.00128539 0.0139322 -0.0367749 -0.193332 0.00125 384
1 0.21454 0.171157 0.00165827 0.0440363 0.0211583 0.0652264 0.00125 385
1 0.0295105 0.0431132 0.00216564 -0.0290904 0.0246651 -0.0126614 0.00125 386
1 0.202756 0.0673107 0.00130089 -0.0477439 0.0058248 -0.278265 0.00125 387
1 0.239292 0.194818 0.00137492 -0.0135321 0.00589419 0.162003 0.00125 388
1 0.0317613 0.223745 0.00125685 0.0207664 0.0113984 0.19926 0.00125 389
1 0.0196784 0.250646 0.00184294 0.0352824 0.0461557 -0.167823 0.00125 390
1 0.24221 0.222754 0.00164187 0.00676679 0.00502873 -0.0368561 0.00125 391
1 0.11175 0.120784 0.00159638 -0.071478 0.0161701 -0.116773 0.00125 392
1 0.243667 0.0247388 0.00209722 0.0359485 -0.0641598 -0.0726405 0.00125 393
1 0.0135251 0.180223 0.00218905 0.0208318 0.0321767 -0.0345252 0.00125 394
1 0.153031 0.0659354 0.00173764 -0.032643 0.0189242 -0.229904 0.00125 395
1 0.211939 0.261547 0.00131859 0.0457699 -0.010051 -0.155152 0.00125 396
1 0.20755 0.168334 0.00143879 0.0215312 0.0122067 0.163798 0.00125 397
1 0.249234 0.194746 0.00146625 0.0193199 -0.0146196 -0.260121 0.00125 398
1 0.249358 0.117517 0.00230754 0.0678685 0.0349798 -0.12822 0.00125 399
1 0.234255 0.190452 0.00140853 0.0261127 -0.0515397 -0.208266 0.00125 400