ITEM: TIMESTEP
1800.000000
ITEM: NUMBER OF ATOMS
5000
ITEM: BOX BOUNDS xy xz yz
0 214.654818 0
0 214.654818 0
0 2 0
ITEM: ATOMS id type x y xu yu vx vy radius m z
0 1 208.872157 180.430642 208.872157 180.430642 -0.000000 -0.000000 1.000000 1.000000 1.000000
1 1 36.401602 91.719370 36.401602 91.719370 -0.000000 0.000000 1.000000 1.000000 1.000000
2 1 60.762443 196.775036 60.762443 196.775036 0.000000 0.000000 1.000000 1.000000 1.000000
3 1 106.043063 99.645410 106.043063 99.645410 -0.000000 0.000000 1.000000 1.000000 1.000000
4 1 67.024560 79.957261 67.024560 79.957261 0.000000 -0.000000 1.000000 1.000000 1.000000
5 1 181.045584 153.709798 181.045584 153.709798 -0.000000 -0.000000 1.000000 1.000000 1.000000
6 1 100.162719 177.417888 100.162719 177.417888 0.000000 0.000000 1.000000 1.000000 1.000000
7 1 198.926301 136.851593 198.926301 136.851593 -0.000000 -0.000000 1.000000 1.000000 1.000000
8 1 165.583873 184.361243 165.583873 184.361243 0.000000 -0.000000 1.000000 1.000000 1.000000
9 1 70.404174 30.184166 70.404174 30.184166 0.000000 0.000000 1.000000 1.000000 1.000000
10 1 158.448232 111.361033 158.448232 111.361033 -0.000000 0.000000 1.000000 1.000000 1.000000
11 1 210.653527 163.505454 210.653527 163.505454 0.000000 -0.000000 1.000000 1.000000 1.000000
12 1 63.521376 119.874595 63.521376 119.874595 0.000000 -0.000000 1.000000 1.000000 1.000000
13 1 178.977350 15.983600 178.977350 15.983600 0.000000 -0.000000 1.000000 1.000000 1.000000
14 1 84.470886 12.638182 84.470886 12.638182 -0.000000 -0.000000 1.000000 1.000000 1.000000
15 1 45.249639 42.237185 45.249639 42.237185 0.000000 0.000000 1.000000 1.000000 1.000000
16 1 71.414198 124.799492 71.414198 124.799492 -0.000000 -0.000000 1.000000 1.000000 1.000000
17 1 104.818628 137.752319 104.818628 137.752319 -0.000000 -0.000000 1.000000 1.000000 1.000000
18 1 88.356828 205.770431 88.356828 205.770431 0.000000 0.000000 1.000000 1.000000 1.000000
19 1 210.394571 30.746143 210.394571 30.746143 0.000000 0.000000 1.000000 1.000000 1.000000
20 1 213.939761 136.549217 -0.715057 136.549217 -0.000000 0.000000 1.000000 1.000000 1.000000
21 1 49.212246 28.305678 49.212246 28.305678 0.000000 0.000000 1.000000 1.000000 1.000000
22 1 4.619280 167.914145 219.274098 167.914145 -0.000001 0.000001 1.000000 1.000000 1.000000
23 1 50.196076 167.694989 50.196076 167.694989 -0.000000 0.000000 1.000000 1.000000 1.000000
24 1 111.007655 170.050412 111.007655 170.050412 -0.000000 0.000000 1.000000 1.000000 1.000000
25 1 31.597271 72.997841 31.597271 72.997841 -0.000000 -0.000000 1.000000 1.000000 1.000000
26 1 71.239320 164.966857 71.239320 164.966857 0.000000 0.000000 1.000000 1.000000 1.000000
27 1 51.186662 172.563198 51.186662 172.563198 -0.000000 0.000000 1.000000 1.000000 1.000000
28 1 37.613689 109.973563 37.613689 109.973563 0.000000 0.000000 1.000000 1.000000 1.000000
29 1 126.870275 45.135553 126.870275 45.135553 -0.000000 0.000000 1.000000 1.000000 1.000000
30 1 87.330463 136.222760 87.330463 136.222760 0.000000 0.000000 1.000000 1.000000 1.000000
31 1 59.291179 67.896544 59.291179 67.896544 0.000000 0.000000 1.000000 1.000000 1.000000
32 1 66.325406 82.401241 66.325406 82.401241 0.000000 -0.000000 1.000000 1.000000 1.000000
33 1 110.923683 44.935218 110.923683 44.935218 -0.000000 0.000000 1.000000 1.000000 1.000000
34 1 138.296555 168.754561 138.296555 168.754561 -0.000000 -0.000000 1.000000 1.000000 1.000000
35 1 203.353160 8.750540 203.353160 8.750540 -0.000000 -0.000000 1.000000 1.000000 1.000000
36 1 23.249327 163.596114 23.249327 163.596114 -0.000000 -0.000000 1.000000 1.000000 1.000000
37 1 48.146354 133.643695 48.146354 133.643695 0.000000 -0.000000 1.000000 1.000000 1.000000
38 1 60.525293 210.329335 60.525293 -4.325483 -0.000000 -0.000000 1.000000 1.000000 1.000000
39 1 183.913762 108.495249 183.913762 108.495249 0.000000 0.000000 1.000000 1.000000 1.000000
40 1 178.207504 163.214838 178.207504 163.214838 0.000000 -0.000000 1.000000 1.000000 1.000000
41 1 11.434933 113.644790 11.434933 113.644790 0.000000 0.000000 1.000000 1.000000 1.000000
42 1 35.298403 38.467589 35.298403 38.467589 0.000000 -0.000000 1.000000 1.000000 1.000000
43 1 163.078621 156.496707 163.078621 156.496707 0.000000 -0.000000 1.000000 1.000000 1.000000
44 1 25.159682 20.361807 25.159682 20.361807 -0.000000 -0.000000 1.000000 1.000000 1.000000
45 1 212.537277 74.654934 -2.117541 74.654934 0.000000 -0.000000 1.000000 1.000000 1.000000
46 1 53.170731 116.650225 53.170731 116.650225 -0.000000 -0.000000 1.000000 1.000000 1.000000
47 1 172.073500 194.624516 172.073500 194.624516 -0.000000 0.000000 1.000000 1.000000 1.000000
48 1 83.903574 96.085356 83.903574 96.085356 0.000000 -0.000000 1.000000 1.000000 1.000000
49 1 55.578124 45.810156 55.578124 45.810156 0.000000 -0.000000 1.000000 1.000000 1.000000
50 1 111.455240 31.691969 111.455240 31.691969 -0.000000 -0.000000 1.000000 1.000000 1.000000
51 1 1.523487 118.828107 216.178305 118.828107 -0.000000 0.000000 1.000000 1.000000 1.000000
52 1 75.915073 157.969285 75.915073 157.969285 0.000000 0.000000 1.000000 1.000000 1.000000
53 1 1.420980 85.909834 216.075798 85.909834 0.000000 0.000000 1.000000 1.000000 1.000000
54 1 136.266273 168.784366 136.266273 168.784366 0.000000 0.000000 1.000000 1.000000 1.000000
55 1 162.278509 150.414111 162.278509 150.414111 -0.000000 0.000000 1.000000 1.000000 1.000000
56 1 117.548273 139.631498 117.548273 139.631498 -0.000000 -0.000000 1.000000 1.000000 1.000000
57 1 184.247745 46.600375 184.247745 46.600375 0.000000 0.000000 1.000000 1.000000 1.000000
58 1 8.851263 116.611499 8.851263 116.611499 -0.000000 0.000000 1.000000 1.000000 1.000000
59 1 55.091769 142.755458 55.091769 142.755458 0.000000 0.000000 1.000000 1.000000 1.000000
60 1 117.848533 173.361322 117.848533 173.361322 0.000000 0.000000 1.000000 1.000000 1.000000
61 1 56.875112 106.416966 56.875112 106.416966 -0.000000 0.000000 1.000000 1.000000 1.000000
62 1 38.712413 23.994401 38.712413 23.994401 -0.000000 0.000000 1.000000 1.000000 1.000000
63 1 170.990904 140.187577 170.990904 140.187577 -0.000000 0.000000 1.000000 1.000000 1.000000
64 1 150.147795 65.987434 150.147795 65.987434 -0.000000 -0.000000 1.000000 1.000000 1.000000
65 1 159.467692 159.488336 159.467692 159.488336 0.000000 -0.000000 1.000000 1.000000 1.000000
66 1 187.295110 200.026263 187.295110 200.026263 0.000000 0.000000 1.000000 1.000000 1.000000
67 1 158.239382 16.713273 158.239382 16.713273 -0.000000 0.000000 1.000000 1.000000 1.000000
68 1 38.667657 133.344257 38.667657 133.344257 -0.000000 -0.000000 1.000000 1.000000 1.000000
69 1 185.746693 7.665774 185.746693 7.665774 -0.000000 -0.000000 1.000000 1.000000 1.000000
70 1 71.236600 4.028559 71.236600 4.028559 -0.000000 0.000000 1.000000 1.000000 1.000000
71 1 67.717084 140.807047 67.717084 140.807047 0.000000 -0.000000 1.000000 1.000000 1.000000
72 1 158.573787 90.028414 158.573787 90.028414 -0.000000 0.000000 1.000000 1.000000 1.000000
73 1 128.347895 203.739069 128.347895 203.739069 0.000000 0.000000 1.000000 1.000000 1.000000
74 1 81.445173 203.249339 81.445173 203.249339 0.000000 0.000000 1.000000 1.000000 1.000000
75 1 77.430646 163.730176 77.430646 163.730176 -0.000000 -0.000000 1.000000 1.000000 1.000000
76 1 116.969899 16.641516 116.969899 16.641516 -0.000000 0.000000 1.000000 1.000000 1.000000
77 1 214.088212 92.354212 -0.566606 92.354212 0.000000 -0.000000 1.000000 1.000000 1.000000
78 1 58.389460 61.303971 58.389460 61.303971 0.000000 0.000000 1.000000 1.000000 1.000000
79 1 145.425308 148.699041 145.425308 148.699041 0.000000 -0.000000 1.000000 1.000000 1.000000
80 1 28.489006 139.482527 28.489006 139.482527 0.000000 -0.000000 1.000000 1.000000 1.000000
81 1 128.213098 206.407394 128.213098 206.407394 0.000000 -0.000000 1.000000 1.000000 1.000000
82 1 183.202636 11.945315 183.202636 11.945315 0.000000 0.000000 1.000000 1.000000 1.000000
83 1 64.757608 95.293709 64.757608 95.293709 -0.000000 0.000000 1.000000 1.000000 1.000000
84 1 163.665027 179.642087 163.665027 179.642087 0.000000 0.000000 1.000000 1.000000 1.000000
85 1 12.754001 7.726942 12.754001 7.726942 -0.000000 0.000000 1.000000 1.000000 1.000000
86 1 46.057510 48.665191 46.057510 48.665191 0.000000 0.000000 1.000000 1.000000 1.000000
87 1 106.971629 166.066575 106.971629 166.066575 -0.000000 0.000000 1.000000 1.000000 1.000000
88 1 174.119899 60.615768 174.119899 60.615768 -0.000000 0.000000 1.000000 1.000000 1.000000
89 1 25.592482 77.136838 25.592482 77.136838 -0.000000 -0.000000 1.000000 1.000000 1.000000
90 1 15.537647 187.568735 15.537647 187.568735 0.000000 0.000000 1.000000 1.000000 1.000000
91 1 97.786567 59.870226 97.786567 59.870226 0.000000 0.000000 1.000000 1.000000 1.000000
92 1 56.069477 89.993224 56.069477 89.993224 0.000000 0.000000 1.000000 1.000000 1.000000
93 1 102.035362 178.848630 102.035362 178.848630 0.000000 0.000000 1.000000 1.000000 1.000000
94 1 182.509651 94.115013 182.509651 94.115013 0.000000 0.000000 1.000000 1.000000 1.000000
95 1 198.674870 161.718600 198.674870 161.718600 0.000000 0.000000 1.000000 1.000000 1.000000
96 1 5.064387 170.411219 219.719205 170.411219 0.000000 0.000001 1.000000 1.000000 1.000000
97 1 71.565911 136.744377 71.565911 136.744377 0.000000 0.000000 1.000000 1.000000 1.000000
98 1 110.864030 24.976457 110.864030 24.976457 0.000000 0.000000 1.000000 1.000000 1.000000
99 1 150.579022 29.024115 150.579022 29.024115 0.000000 0.000000 1.000000 1.000000 1.000000
100 1 83.697075 17.939031 83.697075 17.939031 -0.000000 -0.000000 1.000000 1.000000 1.000000
101 1 145.988457 159.669710 145.988457 159.669710 -0.000000 0.000000 1.000000 1.000000 1.000000
102 1 116.029867 119.154581 116.029867 119.154581 0.000000 0.000000 1.000000 1.000000 1.000000
103 1 154.735741 97.843468 154.735741 97.843468 0.000000 -0.000000 1.000000 1.000000 1.000000
104 1 119.160020 52.034190 119.160020 52.034190 0.000000 0.000000 1.000000 1.000000 1.000000
105 1 0.395091 210.434696 0.395091 210.434696 -0.000000 0.000000 1.000000 1.000000 1.000000
106 1 119.592734 112.241021 119.592734 112.241021 -0.000000 -0.000000 1.000000 1.000000 1.000000
107 1 152.540760 22.323196 152.540760 22.323196 -0.000000 -0.000000 1.000000 1.000000 1.000000
108 1 90.666162 62.133955 90.666162 62.133955 -0.000000 0.000000 1.000000 1.000000 1.000000
109 1 53.293919 195.611913 53.293919 195.611913 0.000000 0.000000 1.000000 1.000000 1.000000
110 1 19.848943 111.849474 19.848943 111.849474 -0.000000 0.000000 1.000000 1.000000 1.000000
111 1 1.472333 199.101079 1.472333 199.101079 0.000000 0.000000 1.000000 1.000000 1.000000
112 1 36.834564 107.427826 36.834564 107.427826 0.000000 0.000000 1.000000 1.000000 1.000000
113 1 164.727113 188.410787 164.727113 188.410787 -0.000000 0.000000 1.000000 1.000000 1.000000
114 1 47.051379 74.529505 47.051379 74.529505 -0.000000 -0.000000 1.000000 1.000000 1.000000
115 1 27.272781 102.629090 27.272781 102.629090 -0.000000 0.000000 1.000000 1.000000 1.000000
116 1 123.081235 131.041641 123.081235 131.041641 -0.000000 0.000000 1.000000 1.000000 1.000000
117 1 87.633710 122.154803 87.633710 122.154803 0.000000 0.000000 1.000000 1.000000 1.000000
118 1 104.286026 1.680233 104.286026 216.335051 -0.000000 0.000000 1.000000 1.000000 1.000000
119 1 7.694948 4.639837 7.694948 219.294655 0.000000 0.000000 1.000000 1.000000 1.000000
120 1 190.335590 196.330976 190.335590 196.330976 0.000000 -0.000000 1.000000 1.000000 1.000000
121 1 200.891145 196.460504 -13.763673 196.460504 -0.000000 0.000000 1.000000 1.000000 1.000000
122 1 160.205553 88.836039 160.205553 88.836039 -0.000000 -0.000000 1.000000 1.000000 1.000000
123 1 46.715034 12.232393 46.715034 12.232393 0.000000 0.000000 1.000000 1.000000 1.000000
124 1 154.453561 78.903165 154.453561 78.903165 -0.000000 0.000000 1.000000 1.000000 1.000000
125 1 28.174209 79.513160 28.174209 79.513160 0.000000 -0.000000 1.000000 1.000000 1.000000
126 1 172.454513 118.080663 172.454513 118.080663 -0.000000 0.000000 1.000000 1.000000 1.000000
127 1 143.978460 201.546992 143.978460 201.546992 -0.000000 -0.000000 1.000000 1.000000 1.000000
128 1 16.204196 179.397480 16.204196 179.397480 0.000000 0.000000 1.000000 1.000000 1.000000
129 1 143.381111 84.189323 143.381111 84.189323 -0.000000 -0.000000 1.000000 1.000000 1.000000
130 1 43.729010 160.898715 43.729010 160.898715 0.000000 0.000000 1.000000 1.000000 1.000000
131 1 16.761464 89.297329 16.761464 89.297329 -0.000000 0.000000 1.000000 1.000000 1.000000
132 1 13.499381 93.975322 13.499381 93.975322 0.000000 -0.000000 1.000000 1.000000 1.000000
133 1 127.795538 25.174861 127.795538 25.174861 -0.000000 -0.000000 1.000000 1.000000 1.000000
134 1 102.755158 202.576627 102.755158 202.576627 -0.000000 0.000000 1.000000 1.000000 1.000000
135 1 8.140393 140.135142 8.140393 140.135142 -0.000000 -0.000000 1.000000 1.000000 1.000000
136 1 202.531484 14.371769 202.531484 229.026587 -0.000000 -0.000000 1.000000 1.000000 1.000000
137 1 162.821445 184.101010 162.821445 184.101010 -0.000000 -0.000000 1.000000 1.000000 1.000000
138 1 12.773769 188.238468 12.773769 188.238468 -0.000000 -0.000000 1.000000 1.000000 1.000000
139 1 47.923160 4.013756 47.923160 4.013756 0.000000 0.000000 1.000000 1.000000 1.000000
140 1 191.829444 154.850528 191.829444 154.850528 -0.000000 -0.000000 1.000000 1.000000 1.000000
141 1 14.425617 103.964793 14.425617 103.964793 0.000000 0.000000 1.000000 1.000000 1.000000
142 1 115.969426 54.996991 115.969426 54.996991 0.000000 0.000000 1.000000 1.000000 1.000000
143 1 113.699876 29.988590 113.699876 29.988590 -0.000000 -0.000000 1.000000 1.000000 1.000000
144 1 52.999543 120.379092 52.999543 120.379092 -0.000000 -0.000000 1.000000 1.000000 1.000000
145 1 49.492053 38.120048 49.492053 38.120048 0.000000 0.000000 1.000000 1.000000 1.000000
146 1 83.795434 185.420297 83.795434 185.420297 -0.000000 0.000000 1.000000 1.000000 1.000000
147 1 126.525850 91.085681 126.525850 91.085681 -0.000000 0.000000 1.000000 1.000000 1.000000
148 1 40.075166 213.042503 40.075166 -1.612315 -0.000000 -0.000000 1.000000 1.000000 1.000000
149 1 133.811898 150.152641 133.811898 150.152641 0.000000 0.000000 1.000000 1.000000 1.000000
150 1 57.202292 63.410209 57.202292 63.410209 0.000000 -0.000000 1.000000 1.000000 1.000000
151 1 39.734336 95.451767 39.734336 95.451767 0.000000 0.000000 1.000000 1.000000 1.000000
152 1 65.105676 147.805637 65.105676 147.805637 0.000000 0.000000 1.000000 1.000000 1.000000
153 1 41.658351 5.321409 41.658351 5.321409 -0.000000 -0.000000 1.000000 1.000000 1.000000
154 1 117.405191 32.262912 117.405191 32.262912 -0.000000 -0.000000 1.000000 1.000000 1.000000
155 1 115.971899 210.089339 115.971899 210.089339 0.000000 0.000000 1.000000 1.000000 1.000000
156 1 13.376892 31.180075 228.031710 31.180075 -0.000000 0.000000 1.000000 1.000000 1.000000
157 1 167.049813 113.541031 167.049813 113.541031 -0.000000 0.000000 1.000000 1.000000 1.000000
158 1 9.659269 63.161633 9.659269 63.161633 0.000000 -0.000000 1.000000 1.000000 1.000000
159 1 52.813145 161.337301 52.813145 161.337301 -0.000000 -0.000000 1.000000 1.000000 1.000000
160 1 193.856125 161.349777 193.856125 161.349777 0.000000 0.000000 1.000000 1.000000 1.000000
161 1 167.456078 65.707776 167.456078 65.707776 -0.000000 0.000000 1.000000 1.000000 1.000000
162 1 45.744544 1.292727 45.744544 1.292727 0.000000 -0.000000 1.000000 1.000000 1.000000
163 1 74.743903 168.180643 74.743903 168.180643 0.000000 -0.000000 1.000000 1.000000 1.000000
164 1 55.537828 145.284399 55.537828 145.284399 0.000000 -0.000000 1.000000 1.000000 1.000000
165 1 103.255699 164.252675 103.255699 164.252675 -0.000000 -0.000000 1.000000 1.000000 1.000000
166 1 98.875330 40.041998 98.875330 40.041998 0.000000 0.000000 1.000000 1.000000 1.000000
167 1 18.801610 99.524854 18.801610 99.524854 -0.000000 0.000000 1.000000 1.000000 1.000000
168 1 213.878985 126.698087 213.878985 126.698087 0.000000 0.000000 1.000000 1.000000 1.000000
169 1 1.997855 183.613715 216.652673 183.613715 -0.000000 -0.000000 1.000000 1.000000 1.000000
170 1 125.472298 56.225112 125.472298 56.225112 0.000000 -0.000000 1.000000 1.000000 1.000000
171 1 93.384294 84.813189 93.384294 84.813189 -0.000000 0.000000 1.000000 1.000000 1.000000
172 1 79.302102 177.447267 79.302102 177.447267 0.000000 -0.000000 1.000000 1.000000 1.000000
173 1 83.897564 164.991151 83.897564 164.991151 0.000000 -0.000000 1.000000 1.000000 1.000000
174 1 12.351157 204.312488 12.351157 204.312488 -0.000000 -0.000000 1.000000 1.000000 1.000000
175 1 6.687737 51.279560 6.687737 51.279560 0.000000 0.000000 1.000000 1.000000 1.000000
176 1 149.587192 188.523728 149.587192 188.523728 0.000000 -0.000000 1.000000 1.000000 1.000000
177 1 147.713012 109.599719 147.713012 109.599719 -0.000000 -0.000000 1.000000 1.000000 1.000000
178 1 114.053583 139.901721 114.053583 139.901721 -0.000000 0.000000 1.000000 1.000000 1.000000
179 1 25.776721 62.338119 25.776721 62.338119 0.000000 0.000000 1.000000 1.000000 1.000000
180 1 52.577676 40.601640 52.577676 40.601640 0.000000 -0.000000 1.000000 1.000000 1.000000
181 1 44.339281 190.824914 44.339281 190.824914 -0.000000 -0.000000 1.000000 1.000000 1.000000
182 1 93.259196 188.411488 93.259196 188.411488 -0.000000 -0.000000 1.000000 1.000000 1.000000
183 1 162.366140 125.513478 162.366140 125.513478 0.000000 0.000000 1.000000 1.000000 1.000000
184 1 155.075026 117.304475 155.075026 117.304475 -0.000000 0.000000 1.000000 1.000000 1.000000
185 1 122.441580 152.199393 122.441580 152.199393 -0.000000 -0.000000 1.000000 1.000000 1.000000
186 1 18.283750 114.572642 18.283750 114.572642 -0.000000 0.000000 1.000000 1.000000 1.000000
187 1 164.397651 171.435308 164.397651 171.435308 -0.000000 -0.000000 1.000000 1.000000 1.000000
188 1 174.615576 76.492367 174.615576 76.492367 0.000000 -0.000000 1.000000 1.000000 1.000000
189 1 79.737706 130.054761 79.737706 130.054761 0.000000 -0.000000 1.000000 1.000000 1.000000
190 1 39.725166 106.997960 39.725166 106.997960 -0.000000 0.000000 1.000000 1.000000 1.000000
191 1 130.904381 70.958154 130.904381 70.958154 0.000000 -0.000000 1.000000 1.000000 1.000000
192 1 203.248263 87.890127 203.248263 87.890127 -0.000000 -0.000000 1.000000 1.000000 1.000000
193 1 113.451340 1.986330 113.451340 216.641148 0.000000 0.000000 1.000000 1.000000 1.000000
194 1 173.555404 21.848531 173.555404 21.848531 0.000000 0.000000 1.000000 1.000000 1.000000
195 1 94.411366 15.193370 94.411366 15.193370 0.000000 0.000000 1.000000 1.000000 1.000000
196 1 199.737222 177.020693 199.737222 177.020693 0.000000 -0.000000 1.000000 1.000000 1.000000
197 1 32.871942 197.206017 32.871942 197.206017 0.000000 0.000000 1.000000 1.000000 1.000000
198 1 214.623154 10.643813 -0.031664 10.643813 -0.000000 -0.000000 1.000000 1.000000 1.000000
199 1 26.660379 159.319754 26.660379 159.319754 -0.000000 -0.000000 1.000000 1.000000 1.000000
200 1 119.304028 43.446949 119.304028 43.446949 0.000000 -0.000000 1.000000 1.000000 1.000000
201 1 144.543148 49.772138 144.543148 49.772138 0.000000 -0.000000 1.000000 1.000000 1.000000
202 1 183.378846 153.501117 183.378846 153.501117 -0.000000 -0.000000 1.000000 1.000000 1.000000
203 1 70.475352 213.416413 70.475352 -1.238405 0.000000 0.000000 1.000000 1.000000 1.000000
204 1 53.215740 151.791642 53.215740 151.791642 0.000000 -0.000000 1.000000 1.000000 1.000000
205 1 153.313146 194.021615 153.313146 194.021615 -0.000000 -0.000000 1.000000 1.000000 1.000000
206 1 196.893357 181.499014 196.893357 181.499014 -0.000000 0.000000 1.000000 1.000000 1.000000
207 1 155.706780 127.872981 155.706780 127.872981 -0.000000 0.000000 1.000000 1.000000 1.000000
208 1 160.042613 77.069800 160.042613 77.069800 0.000000 -0.000000 1.000000 1.000000 1.000000
209 1 117.123549 207.632038 117.123549 207.632038 0.000000 -0.000000 1.000000 1.000000 1.000000
210 1 141.444081 207.546196 141.444081 207.546196 0.000000 0.000000 1.000000 1.000000 1.000000
211 1 90.505177 197.064327 90.505177 197.064327 0.000000 -0.000000 1.000000 1.000000 1.000000
212 1 78.313763 173.225004 78.313763 173.225004 -0.000000 0.000000 1.000000 1.000000 1.000000
213 1 75.846882 32.268377 75.846882 32.268377 -0.000000 -0.000000 1.000000 1.000000 1.000000
214 1 82.217994 2.732562 82.217994 2.732562 -0.000000 0.000000 1.000000 1.000000 1.000000
215 1 97.990053 151.951351 97.990053 151.951351 0.000000 0.000000 1.000000 1.000000 1.000000
216 1 157.962710 212.185473 157.962710 212.185473 -0.000000 0.000000 1.000000 1.000000 1.000000
217 1 94.278966 8.963047 94.278966 8.963047 -0.000000 0.000000 1.000000 1.000000 1.000000
218 1 191.706833 206.043882 -22.947985 206.043882 -0.000000 0.000000 1.000000 1.000000 1.000000
219 1 92.842801 53.693396 92.842801 53.693396 -0.000000 0.000000 1.000000 1.000000 1.000000
220 1 171.637154 88.916844 171.637154 88.916844 0.000000 -0.000000 1.000000 1.000000 1.000000
221 1 103.285338 99.381856 103.285338 99.381856 0.000000 0.000000 1.000000 1.000000 1.000000
222 1 207.604605 146.591209 207.604605 146.591209 0.000000 -0.000000 1.000000 1.000000 1.000000
223 1 144.328322 27.922184 144.328322 27.922184 0.000000 0.000000 1.000000 1.000000 1.000000
224 1 17.547821 209.399133 17.547821 209.399133 0.000000 0.000000 1.000000 1.000000 1.000000
225 1 140.059758 115.761448 140.059758 115.761448 -0.000000 0.000000 1.000000 1.000000 1.000000
226 1 47.497547 208.378243 47.497547 208.378243 0.000000 0.000000 1.000000 1.000000 1.000000
227 1 111.928056 122.493362 111.928056 122.493362 -0.000000 -0.000000 1.000000 1.000000 1.000000
228 1 111.602554 183.215469 111.602554 183.215469 0.000000 -0.000000 1.000000 1.000000 1.000000
229 1 90.475894 134.961745 90.475894 134.961745 0.000000 0.000000 1.000000 1.000000 1.000000
230 1 28.759649 158.161076 28.759649 158.161076 -0.000000 -0.000000 1.000000 1.000000 1.000000
231 1 83.425341 174.677788 83.425341 174.677788 0.000000 -0.000000 1.000000 1.000000 1.000000
232 1 171.973612 111.374565 171.973612 111.374565 0.000000 0.000000 1.000000 1.000000 1.000000
233 1 139.644650 128.032703 139.644650 128.032703 -0.000000 0.000000 1.000000 1.000000 1.000000
234 1 67.925856 70.897259 67.925856 70.897259 0.000000 0.000000 1.000000 1.000000 1.000000
235 1 58.076943 128.823525 58.076943 128.823525 -0.000000 -0.000000 1.000000 1.000000 1.000000
236 1 178.805225 65.223479 178.805225 65.223479 0.000000 -0.000000 1.000000 1.000000 1.000000
237 1 174.813322 178.426732 174.813322 178.426732 0.000000 -0.000000 1.000000 1.000000 1.000000
238 1 192.007659 11.372413 192.007659 11.372413 0.000000 -0.000000 1.000000 1.000000 1.000000
239 1 13.259433 199.907689 13.259433 199.907689 0.000000 0.000000 1.000000 1.000000 1.000000
240 1 80.980373 113.041779 80.980373 113.041779 -0.000000 0.000000 1.000000 1.000000 1.000000
241 1 189.304203 54.240144 189.304203 54.240144 0.000000 -0.000000 1.000000 1.000000 1.000000
242 1 72.805204 41.294204 72.805204 41.294204 -0.000000 0.000000 1.000000 1.000000 1.000000
243 1 75.182014 150.877263 75.182014 150.877263 -0.000000 0.000000 1.000000 1.000000 1.000000
244 1 142.183953 40.839426 142.183953 40.839426 0.000000 -0.000000 1.000000 1.000000 1.000000
245 1 143.588392 22.563808 143.588392 22.563808 0.000000 -0.000000 1.000000 1.000000 1.000000
246 1 56.151829 15.827309 56.151829 15.827309 -0.000000 0.000000 1.000000 1.000000 1.000000
247 1 45.490793 134.440323 45.490793 134.440323 -0.000000 -0.000000 1.000000 1.000000 1.000000
248 1 106.818551 189.169317 106.818551 189.169317 0.000000 -0.000000 1.000000 1.000000 1.000000
249 1 3.267824 141.996863 3.267824 141.996863 -0.000000 -0.000000 1.000000 1.000000 1.000000
250 1 149.556888 157.004548 149.556888 157.004548 0.000000 -0.000000 1.000000 1.000000 1.000000
251 1 111.042843 63.566948 111.042843 63.566948 0.000000 -0.000000 1.000000 1.000000 1.000000
252 1 200.550235 28.442648 200.550235 28.442648 -0.000000 -0.000000 1.000000 1.000000 1.000000
253 1 66.776263 165.665805 66.776263 165.665805 -0.000000 -0.000000 1.000000 1.000000 1.000000
254 1 156.264432 110.160803 156.264432 110.160803 -0.000000 -0.000000 1.000000 1.000000 1.000000
255 1 9.411330 72.771680 9.411330 72.771680 0.000000 0.000000 1.000000 1.000000 1.000000
256 1 59.261845 116.379632 59.261845 116.379632 0.000000 -0.000000 1.000000 1.000000 1.000000
257 1 148.970588 200.356795 148.970588 200.356795 -0.000000 0.000000 1.000000 1.000000 1.000000
258 1 194.058418 12.486742 194.058418 12.486742 0.000000 0.000000 1.000000 1.000000 1.000000
259 1 48.768269 212.895295 48.768269 212.895295 0.000000 -0.000000 1.000000 1.000000 1.000000
260 1 104.505562 69.911789 104.505562 69.911789 -0.000000 0.000000 1.000000 1.000000 1.000000
261 1 147.310915 122.933926 147.310915 122.933926 -0.000000 -0.000000 1.000000 1.000000 1.000000
262 1 129.811256 162.259849 129.811256 162.259849 0.000000 0.000000 1.000000 1.000000 1.000000
263 1 203.079861 163.203778 203.079861 163.203778 0.000000 0.000000 1.000000 1.000000 1.000000
264 1 146.180833 152.709786 146.180833 152.709786 -0.000000 0.000000 1.000000 1.000000 1.000000
265 1 161.308563 157.647684 161.308563 157.647684 0.000000 -0.000000 1.000000 1.000000 1.000000
266 1 35.839787 77.635518 35.839787 77.635518 -0.000000 0.000000 1.000000 1.000000 1.000000
267 1 129.925894 64.978754 129.925894 64.978754 -0.000000 0.000000 1.000000 1.000000 1.000000
268 1 173.935594 46.296238 173.935594 46.296238 -0.000000 0.000000 1.000000 1.000000 1.000000
269 1 199.312732 39.196607 199.312732 39.196607 -0.000000 -0.000000 1.000000 1.000000 1.000000
270 1 147.446556 187.639440 147.446556 187.639440 0.000000 -0.000000 1.000000 1.000000 1.000000
271 1 1.297511 179.278560 1.297511 179.278560 -0.000000 0.000000 1.000000 1.000000 1.000000
272 1 71.715689 151.190137 71.715689 151.190137 0.000000 -0.000000 1.000000 1.000000 1.000000
273 1 86.034368 18.163022 86.034368 18.163022 -0.000000 -0.000000 1.000000 1.000000 1.000000
274 1 53.539026 149.731979 53.539026 149.731979 -0.000000 -0.000000 1.000000 1.000000 1.000000
275 1 177.695728 74.099017 177.695728 74.099017 0.000000 0.000000 1.000000 1.000000 1.000000
276 1 85.829797 52.422637 85.829797 52.422637 0.000000 0.000000 1.000000 1.000000 1.000000
277 1 124.582279 145.673356 124.582279 145.673356 -0.000000 -0.000000 1.000000 1.000000 1.000000
278 1 62.649484 84.797798 62.649484 84.797798 0.000000 -0.000000 1.000000 1.000000 1.000000
279 1 180.764036 60.780138 180.764036 60.780138 -0.000000 0.000000 1.000000 1.000000 1.000000
280 1 154.594586 189.678925 154.594586 189.678925 0.000000 0.000000 1.000000 1.000000 1.000000
281 1 172.353161 93.266631 172.353161 93.266631 0.000000 -0.000000 1.000000 1.000000 1.000000
282 1 140.546541 150.975468 140.546541 150.975468 0.000000 0.000000 1.000000 1.000000 1.000000
283 1 46.379403 184.192820 46.379403 184.192820 0.000000 -0.000000 1.000000 1.000000 1.000000
284 1 76.549469 183.419387 76.549469 183.419387 0.000000 0.000000 1.000000 1.000000 1.000000
285 1 9.386493 158.102290 9.386493 158.102290 -0.000000 -0.000000 1.000000 1.000000 1.000000
286 1 173.966250 29.965417 173.966250 29.965417 0.000000 0.000000 1.000000 1.000000 1.000000
287 1 212.950429 124.489555 -1.704389 124.489555 -0.000000 0.000000 1.000000 1.000000 1.000000
288 1 209.571109 23.850130 209.571109 23.850130 -0.000000 0.000000 1.000000 1.000000 1.000000
289 1 153.520435 129.751672 153.520435 129.751672 0.000000 -0.000000 1.000000 1.000000 1.000000
290 1 50.376828 156.878781 50.376828 156.878781 0.000000 -0.000000 1.000000 1.000000 1.000000
291 1 34.656583 25.111348 34.656583 25.111348 0.000000 0.000000 1.000000 1.000000 1.000000
292 1 25.546334 28.908372 25.546334 28.908372 -0.000000 -0.000000 1.000000 1.000000 1.000000
293 1 127.056988 18.710910 127.056988 18.710910 0.000000 -0.000000 1.000000 1.000000 1.000000
294 1 143.892836 66.976084 143.892836 66.976084 0.000000 -0.000000 1.000000 1.000000 1.000000
295 1 5.401878 155.845344 220.056696 155.845344 0.000000 0.000000 1.000000 1.000000 1.000000
296 1 214.224538 33.500919 214.224538 33.500919 -0.000000 -0.000000 1.000000 1.000000 1.000000
297 1 208.794741 160.647422 -5.860077 160.647422 0.000000 0.000000 1.000000 1.000000 1.000000
298 1 194.786003 170.898661 194.786003 170.898661 -0.000000 -0.000000 1.000000 1.000000 1.000000
299 1 71.317844 141.458988 71.317844 141.458988 -0.000000 -0.000000 1.000000 1.000000 1.000000
300 1 122.642385 123.926005 122.642385 123.926005 -0.000000 -0.000000 1.000000 1.000000 1.000000
301 1 57.885458 164.641618 57.885458 164.641618 0.000000 0.000000 1.000000 1.000000 1.000000
302 1 173.392000 80.624792 173.392000 80.624792 -0.000000 -0.000000 1.000000 1.000000 1.000000
303 1 30.850028 142.586715 30.850028 142.586715 0.000000 -0.000000 1.000000 1.000000 1.000000
304 1 95.584254 208.023888 95.584254 -6.630930 0.000000 0.000000 1.000000 1.000000 1.000000
305 1 48.979772 195.642262 48.979772 195.642262 -0.000000 -0.000000 1.000000 1.000000 1.000000
306 1 91.281277 56.557321 91.281277 56.557321 -0.000000 0.000000 1.000000 1.000000 1.000000
307 1 96.572796 64.108659 96.572796 64.108659 -0.000000 -0.000000 1.000000 1.000000 1.000000
308 1 21.432338 164.760641 21.432338 164.760641 -0.000000 0.000000 1.000000 1.000000 1.000000
309 1 169.576782 129.889274 169.576782 129.889274 -0.000000 0.000000 1.000000 1.000000 1.000000
310 1 169.416806 137.675201 169.416806 137.675201 -0.000000 0.000000 1.000000 1.000000 1.000000
311 1 134.231410 146.923431 134.231410 146.923431 0.000000 0.000000 1.000000 1.000000 1.000000
312 1 134.037735 144.126172 134.037735 144.126172 -0.000000 0.000000 1.000000 1.000000 1.000000
313 1 14.575221 0.315493 14.575221 214.970311 -0.000000 0.000000 1.000000 1.000000 1.000000
314 1 4.646059 59.808233 4.646059 59.808233 -0.000000 0.000000 1.000000 1.000000 1.000000
315 1 160.129388 74.349842 160.129388 74.349842 -0.000000 -0.000000 1.000000 1.000000 1.000000
316 1 74.197616 13.825273 74.197616 13.825273 0.000000 0.000000 1.000000 1.000000 1.000000
317 1 107.441477 194.972739 107.441477 194.972739 -0.000000 -0.000000 1.000000 1.000000 1.000000