ITEM: TIMESTEP
1200.000000
ITEM: NUMBER OF ATOMS
5000
ITEM: BOX BOUNDS xy xz yz
0 263.778108 0
0 263.778108 0
0 2 0
ITEM: ATOMS id type x y xu yu vx vy radius m z
0 1 167.501013 74.564079 167.501013 74.564079 0.000000 0.000000 1.000000 1.000000 1.000000
1 1 236.485800 112.236264 236.485800 112.236264 0.000000 0.000000 1.000000 1.000000 1.000000
2 1 157.145185 11.214072 157.145185 274.992180 -0.000000 -0.000000 1.000000 1.000000 1.000000
3 1 224.290396 90.893884 224.290396 90.893884 0.000000 0.000000 1.000000 1.000000 1.000000
4 1 125.255009 34.200236 125.255009 34.200236 -0.000000 0.000000 1.000000 1.000000 1.000000
5 1 120.316235 153.535459 120.316235 153.535459 0.000000 0.000000 1.000000 1.000000 1.000000
6 1 116.405141 235.715038 116.405141 235.715038 0.000000 0.000000 1.000000 1.000000 1.000000
7 1 129.302696 162.234158 129.302696 162.234158 -0.000000 0.000000 1.000000 1.000000 1.000000
8 1 171.140396 253.921794 171.140396 253.921794 -0.000000 0.000000 1.000000 1.000000 1.000000
9 1 261.456814 13.640065 261.456814 13.640065 -0.000000 -0.000000 1.000000 1.000000 1.000000
10 1 130.873862 160.683827 130.873862 160.683827 0.000000 0.000000 1.000000 1.000000 1.000000
11 1 193.484181 98.481131 193.484181 98.481131 -0.000000 -0.000000 1.000000 1.000000 1.000000
12 1 224.135565 260.331204 224.135565 260.331204 -0.000000 0.000000 1.000000 1.000000 1.000000
13 1 8.724484 214.530228 8.724484 214.530228 -0.000000 -0.000000 1.000000 1.000000 1.000000
14 1 32.796567 67.198526 32.796567 67.198526 0.000000 -0.000000 1.000000 1.000000 1.000000
15 1 257.507356 98.303625 257.507356 98.303625 -0.000000 0.000000 1.000000 1.000000 1.000000
16 1 172.622867 240.191231 172.622867 240.191231 0.000000 -0.000000 1.000000 1.000000 1.000000
17 1 180.786914 132.564995 180.786914 132.564995 0.000000 0.000000 1.000000 1.000000 1.000000
18 1 14.445247 230.180686 14.445247 230.180686 0.000000 -0.000000 1.000000 1.000000 1.000000
19 1 191.042815 4.127243 191.042815 267.905351 0.000000 0.000000 1.000000 1.000000 1.000000
20 1 34.960894 171.805452 34.960894 171.805452 0.000000 -0.000000 1.000000 1.000000 1.000000
21 1 87.907904 138.156670 87.907904 138.156670 -0.000000 0.000000 1.000000 1.000000 1.000000
22 1 95.105529 64.545121 95.105529 64.545121 -0.000000 -0.000000 1.000000 1.000000 1.000000
23 1 21.828030 0.127163 21.828030 0.127163 0.000000 0.000000 1.000000 1.000000 1.000000
24 1 88.197186 87.815035 88.197186 87.815035 -0.000000 -0.000000 1.000000 1.000000 1.000000
25 1 58.433455 161.297706 58.433455 161.297706 0.000000 -0.000000 1.000000 1.000000 1.000000
26 1 19.995010 76.849786 19.995010 76.849786 0.000000 0.000000 1.000000 1.000000 1.000000
27 1 59.699769 157.045872 59.699769 157.045872 -0.000000 0.000000 1.000000 1.000000 1.000000
28 1 110.979345 232.644574 110.979345 232.644574 0.000000 0.000000 1.000000 1.000000 1.000000
29 1 157.001116 243.637929 157.001116 243.637929 -0.000000 -0.000000 1.000000 1.000000 1.000000
30 1 214.377351 110.768273 214.377351 110.768273 0.000000 -0.000000 1.000000 1.000000 1.000000
31 1 206.173611 225.150554 206.173611 225.150554 -0.000000 -0.000000 1.000000 1.000000 1.000000
32 1 104.216922 13.568130 104.216922 13.568130 0.000000 0.000000 1.000000 1.000000 1.000000
33 1 56.120127 171.217829 56.120127 171.217829 0.000000 -0.000000 1.000000 1.000000 1.000000
34 1 217.136901 61.917546 217.136901 61.917546 -0.000000 0.000000 1.000000 1.000000 1.000000
35 1 224.003086 211.129366 224.003086 211.129366 -0.000000 0.000000 1.000000 1.000000 1.000000
36 1 12.573462 263.217418 12.573462 -0.560690 0.000000 -0.000000 1.000000 1.000000 1.000000
37 1 185.590260 183.167491 185.590260 183.167491 0.000000 -0.000000 1.000000 1.000000 1.000000
38 1 68.391943 113.289867 68.391943 113.289867 -0.000000 -0.000000 1.000000 1.000000 1.000000
39 1 250.030783 172.690592 -13.747325 172.690592 -0.000000 0.000000 1.000000 1.000000 1.000000
40 1 53.636546 10.907158 53.636546 10.907158 -0.000000 0.000000 1.000000 1.000000 1.000000
41 1 179.747832 70.490916 179.747832 70.490916 -0.000000 -0.000000 1.000000 1.000000 1.000000
42 1 124.807214 47.179926 124.807214 47.179926 0.000000 -0.000000 1.000000 1.000000 1.000000
43 1 198.161096 64.627401 198.161096 64.627401 0.000000 0.000000 1.000000 1.000000 1.000000
44 1 254.414490 101.692295 254.414490 101.692295 -0.000000 -0.000000 1.000000 1.000000 1.000000
45 1 216.639552 67.316707 216.639552 67.316707 -0.000000 0.000000 1.000000 1.000000 1.000000
46 1 164.956295 129.936228 164.956295 129.936228 -0.000000 0.000000 1.000000 1.000000 1.000000
47 1 199.499507 11.376290 199.499507 11.376290 -0.000000 -0.000000 1.000000 1.000000 1.000000
48 1 211.725795 190.977220 211.725795 190.977220 -0.000000 0.000000 1.000000 1.000000 1.000000
49 1 62.565509 206.514046 62.565509 206.514046 0.000000 -0.000000 1.000000 1.000000 1.000000
50 1 184.553233 128.009903 184.553233 128.009903 -0.000000 -0.000000 1.000000 1.000000 1.000000
51 1 93.688031 234.378434 93.688031 234.378434 0.000000 0.000000 1.000000 1.000000 1.000000
52 1 140.147698 1.842749 140.147698 265.620857 -0.000000 0.000000 1.000000 1.000000 1.000000
53 1 149.415271 57.303556 149.415271 57.303556 -0.000000 0.000000 1.000000 1.000000 1.000000
54 1 136.717702 217.124622 136.717702 217.124622 -0.000000 -0.000000 1.000000 1.000000 1.000000
55 1 189.362435 62.948250 189.362435 62.948250 0.000000 0.000000 1.000000 1.000000 1.000000
56 1 171.236238 132.800391 171.236238 132.800391 -0.000000 -0.000000 1.000000 1.000000 1.000000
57 1 147.963404 154.018227 147.963404 154.018227 0.000000 0.000000 1.000000 1.000000 1.000000
58 1 243.956073 19.140436 243.956073 19.140436 0.000000 0.000000 1.000000 1.000000 1.000000
59 1 130.615526 18.793593 130.615526 18.793593 0.000000 -0.000000 1.000000 1.000000 1.000000
60 1 89.776175 164.515878 89.776175 164.515878 -0.000000 0.000000 1.000000 1.000000 1.000000
61 1 211.402119 146.538165 211.402119 146.538165 -0.000000 0.000000 1.000000 1.000000 1.000000
62 1 244.824590 7.992868 244.824590 7.992868 0.000000 -0.000000 1.000000 1.000000 1.000000
63 1 122.626055 206.953281 122.626055 206.953281 0.000000 -0.000000 1.000000 1.000000 1.000000
64 1 178.422408 105.546234 178.422408 105.546234 0.000000 -0.000000 1.000000 1.000000 1.000000
65 1 227.156952 42.653037 227.156952 42.653037 0.000000 -0.000000 1.000000 1.000000 1.000000
66 1 35.097036 72.858066 35.097036 72.858066 0.000000 -0.000000 1.000000 1.000000 1.000000
67 1 221.776049 223.523057 221.776049 223.523057 -0.000000 -0.000000 1.000000 1.000000 1.000000
68 1 118.693429 211.604801 118.693429 211.604801 0.000000 0.000000 1.000000 1.000000 1.000000
69 1 84.198222 78.028209 84.198222 78.028209 0.000000 -0.000000 1.000000 1.000000 1.000000
70 1 79.347730 41.829748 79.347730 41.829748 0.000000 -0.000000 1.000000 1.000000 1.000000
71 1 177.078094 169.152773 177.078094 169.152773 0.000000 0.000000 1.000000 1.000000 1.000000
72 1 129.934088 175.186453 129.934088 175.186453 -0.000000 -0.000000 1.000000 1.000000 1.000000
73 1 178.176178 225.475160 178.176178 225.475160 0.000000 0.000000 1.000000 1.000000 1.000000
74 1 161.209508 124.521417 161.209508 124.521417 -0.000000 0.000000 1.000000 1.000000 1.000000
75 1 187.630350 167.220184 187.630350 167.220184 -0.000000 0.000000 1.000000 1.000000 1.000000
76 1 69.072418 178.309113 69.072418 178.309113 0.000000 -0.000000 1.000000 1.000000 1.000000
77 1 60.911514 134.645649 60.911514 134.645649 -0.000000 -0.000000 1.000000 1.000000 1.000000
78 1 122.541585 236.207520 122.541585 236.207520 0.000000 -0.000000 1.000000 1.000000 1.000000
79 1 113.914506 236.710755 113.914506 236.710755 -0.000000 0.000000 1.000000 1.000000 1.000000
80 1 180.237937 13.992704 180.237937 13.992704 -0.000000 0.000000 1.000000 1.000000 1.000000
81 1 115.872172 242.885926 115.872172 242.885926 -0.000000 0.000000 1.000000 1.000000 1.000000
82 1 132.500479 58.707221 132.500479 58.707221 -0.000000 -0.000000 1.000000 1.000000 1.000000
83 1 89.017527 191.469999 89.017527 191.469999 0.000000 0.000000 1.000000 1.000000 1.000000
84 1 82.465671 95.664842 82.465671 95.664842 0.000000 -0.000000 1.000000 1.000000 1.000000
85 1 35.310490 182.672848 35.310490 182.672848 -0.000000 0.000000 1.000000 1.000000 1.000000
86 1 53.894010 93.590557 53.894010 93.590557 -0.000000 -0.000000 1.000000 1.000000 1.000000
87 1 87.812115 207.327813 87.812115 207.327813 -0.000000 -0.000000 1.000000 1.000000 1.000000
88 1 202.942171 87.145980 202.942171 87.145980 0.000000 -0.000000 1.000000 1.000000 1.000000
89 1 241.442898 241.402755 241.442898 241.402755 0.000000 0.000000 1.000000 1.000000 1.000000
90 1 199.581826 78.825372 199.581826 78.825372 -0.000000 -0.000000 1.000000 1.000000 1.000000
91 1 111.691437 146.132383 111.691437 146.132383 0.000000 -0.000000 1.000000 1.000000 1.000000
92 1 166.274163 143.710528 166.274163 143.710528 0.000000 0.000000 1.000000 1.000000 1.000000
93 1 151.644079 201.772503 151.644079 201.772503 -0.000000 -0.000000 1.000000 1.000000 1.000000
94 1 181.823410 127.810714 181.823410 127.810714 0.000000 0.000000 1.000000 1.000000 1.000000
95 1 28.406236 161.223783 28.406236 161.223783 0.000000 0.000000 1.000000 1.000000 1.000000
96 1 125.215052 36.853883 125.215052 36.853883 0.000000 0.000000 1.000000 1.000000 1.000000
97 1 189.967551 48.174847 189.967551 48.174847 0.000000 -0.000000 1.000000 1.000000 1.000000
98 1 168.022363 256.882047 168.022363 256.882047 -0.000000 0.000000 1.000000 1.000000 1.000000
99 1 157.168085 164.214915 157.168085 164.214915 -0.000000 -0.000000 1.000000 1.000000 1.000000
100 1 45.500517 78.468638 45.500517 78.468638 -0.000000 0.000000 1.000000 1.000000 1.000000
101 1 182.428946 235.235417 182.428946 235.235417 -0.000000 0.000000 1.000000 1.000000 1.000000
102 1 11.303033 30.117152 11.303033 30.117152 -0.000000 -0.000000 1.000000 1.000000 1.000000
103 1 49.201347 101.064068 49.201347 101.064068 -0.000000 0.000000 1.000000 1.000000 1.000000
104 1 174.539027 45.659751 174.539027 45.659751 0.000000 -0.000000 1.000000 1.000000 1.000000
105 1 35.977441 132.660559 35.977441 132.660559 -0.000000 -0.000000 1.000000 1.000000 1.000000
106 1 88.098521 16.308283 88.098521 16.308283 0.000000 -0.000000 1.000000 1.000000 1.000000
107 1 73.505362 168.666129 73.505362 168.666129 -0.000000 0.000000 1.000000 1.000000 1.000000
108 1 168.748208 263.275994 168.748208 -0.502114 0.000000 -0.000000 1.000000 1.000000 1.000000
109 1 236.918795 221.070571 236.918795 221.070571 -0.000000 0.000000 1.000000 1.000000 1.000000
110 1 5.421784 220.756928 269.199892 220.756928 -0.000000 -0.000000 1.000000 1.000000 1.000000
111 1 77.692875 103.884518 77.692875 103.884518 0.000000 -0.000000 1.000000 1.000000 1.000000
112 1 134.193540 73.159597 134.193540 73.159597 0.000000 -0.000000 1.000000 1.000000 1.000000
113 1 239.946704 249.671902 239.946704 249.671902 -0.000000 -0.000000 1.000000 1.000000 1.000000
114 1 216.622927 29.420223 216.622927 29.420223 -0.000000 -0.000000 1.000000 1.000000 1.000000
115 1 183.986690 217.893603 183.986690 217.893603 0.000000 0.000000 1.000000 1.000000 1.000000
116 1 262.792279 42.296462 262.792279 42.296462 -0.000000 -0.000000 1.000000 1.000000 1.000000
117 1 167.991512 241.510272 167.991512 241.510272 0.000000 0.000000 1.000000 1.000000 1.000000
118 1 54.977323 186.080609 54.977323 186.080609 -0.000000 0.000000 1.000000 1.000000 1.000000
119 1 184.654879 63.868623 184.654879 63.868623 -0.000000 0.000000 1.000000 1.000000 1.000000
120 1 81.540825 250.873504 81.540825 -12.904604 -0.000000 0.000000 1.000000 1.000000 1.000000
121 1 107.605778 255.712574 107.605778 255.712574 0.000000 0.000000 1.000000 1.000000 1.000000
122 1 76.685902 111.181408 76.685902 111.181408 -0.000000 -0.000000 1.000000 1.000000 1.000000
123 1 119.603909 156.419600 119.603909 156.419600 0.000000 -0.000000 1.000000 1.000000 1.000000
124 1 48.636183 123.211015 48.636183 123.211015 -0.000000 -0.000000 1.000000 1.000000 1.000000
125 1 102.200193 262.694348 102.200193 262.694348 -0.000000 -0.000000 1.000000 1.000000 1.000000
126 1 192.253917 84.069038 192.253917 84.069038 0.000000 0.000000 1.000000 1.000000 1.000000
127 1 131.512718 201.864581 131.512718 201.864581 0.000000 0.000000 1.000000 1.000000 1.000000
128 1 30.147392 15.664791 30.147392 15.664791 0.000000 0.000000 1.000000 1.000000 1.000000
129 1 216.414939 91.169928 216.414939 91.169928 0.000000 0.000000 1.000000 1.000000 1.000000
130 1 2.610514 2.189196 2.610514 2.189196 0.000000 0.000000 1.000000 1.000000 1.000000
131 1 71.378343 41.307983 71.378343 41.307983 -0.000000 0.000000 1.000000 1.000000 1.000000
132 1 61.090114 14.527110 61.090114 14.527110 0.000000 -0.000000 1.000000 1.000000 1.000000
133 1 227.296990 209.131763 227.296990 209.131763 -0.000000 0.000000 1.000000 1.000000 1.000000
134 1 193.120582 184.887429 193.120582 184.887429 -0.000000 0.000000 1.000000 1.000000 1.000000
135 1 262.632458 206.603790 262.632458 206.603790 0.000000 0.000000 1.000000 1.000000 1.000000
136 1 57.117867 58.357802 57.117867 58.357802 0.000000 0.000000 1.000000 1.000000 1.000000
137 1 129.719149 137.011460 129.719149 137.011460 -0.000000 -0.000000 1.000000 1.000000 1.000000
138 1 220.737957 263.268644 220.737957 263.268644 0.000000 -0.000000 1.000000 1.000000 1.000000
139 1 12.948557 3.779711 12.948557 3.779711 -0.000000 -0.000000 1.000000 1.000000 1.000000
140 1 183.814512 44.618861 183.814512 44.618861 -0.000000 0.000000 1.000000 1.000000 1.000000
141 1 155.830622 117.443711 155.830622 117.443711 -0.000000 0.000000 1.000000 1.000000 1.000000
142 1 72.869660 209.654105 72.869660 209.654105 -0.000000 -0.000000 1.000000 1.000000 1.000000
143 1 236.096159 16.643502 236.096159 16.643502 -0.000000 -0.000000 1.000000 1.000000 1.000000
144 1 73.668049 157.065061 73.668049 157.065061 0.000000 -0.000000 1.000000 1.000000 1.000000
145 1 165.348080 102.502754 165.348080 102.502754 0.000000 -0.000000 1.000000 1.000000 1.000000
146 1 121.365661 63.903909 121.365661 63.903909 -0.000000 -0.000000 1.000000 1.000000 1.000000
147 1 236.922530 70.302667 236.922530 70.302667 -0.000000 0.000000 1.000000 1.000000 1.000000
148 1 107.462611 37.070581 107.462611 37.070581 -0.000000 -0.000000 1.000000 1.000000 1.000000
149 1 40.375614 65.009558 40.375614 65.009558 0.000000 0.000000 1.000000 1.000000 1.000000
150 1 255.342350 258.035695 255.342350 -5.742413 0.000000 -0.000000 1.000000 1.000000 1.000000
151 1 220.082155 184.300309 220.082155 184.300309 -0.000000 -0.000000 1.000000 1.000000 1.000000
152 1 221.885905 252.317718 221.885905 252.317718 0.000000 0.000000 1.000000 1.000000 1.000000
153 1 46.906273 224.673439 46.906273 224.673439 -0.000000 -0.000000 1.000000 1.000000 1.000000
154 1 189.802003 233.070366 189.802003 233.070366 -0.000000 0.000000 1.000000 1.000000 1.000000
155 1 133.126522 205.999169 133.126522 205.999169 0.000000 -0.000000 1.000000 1.000000 1.000000
156 1 70.742505 48.859195 70.742505 48.859195 0.000000 0.000000 1.000000 1.000000 1.000000
157 1 172.201391 232.746130 172.201391 232.746130 0.000000 0.000000 1.000000 1.000000 1.000000
158 1 147.417580 28.164811 147.417580 28.164811 0.000000 0.000000 1.000000 1.000000 1.000000
159 1 37.131423 41.106758 37.131423 41.106758 -0.000000 -0.000000 1.000000 1.000000 1.000000
160 1 51.551499 64.409610 51.551499 64.409610 -0.000000 0.000000 1.000000 1.000000 1.000000
161 1 139.072823 4.448573 139.072823 268.226681 -0.000000 0.000000 1.000000 1.000000 1.000000
162 1 234.314780 96.192140 234.314780 96.192140 -0.000000 -0.000000 1.000000 1.000000 1.000000
163 1 262.611161 110.774938 -1.166947 110.774938 -0.000000 -0.000000 1.000000 1.000000 1.000000
164 1 42.013237 160.293292 42.013237 160.293292 0.000000 -0.000000 1.000000 1.000000 1.000000
165 1 167.195489 176.319552 167.195489 176.319552 -0.000000 -0.000000 1.000000 1.000000 1.000000
166 1 11.472940 190.393911 275.251048 190.393911 -0.000000 -0.000000 1.000000 1.000000 1.000000
167 1 255.895491 187.858129 -7.882617 187.858129 0.000000 -0.000000 1.000000 1.000000 1.000000
168 1 263.161570 237.089514 263.161570 237.089514 0.000000 0.000000 1.000000 1.000000 1.000000
169 1 141.717381 215.542688 141.717381 215.542688 0.000000 -0.000000 1.000000 1.000000 1.000000
170 1 116.684497 126.778006 116.684497 126.778006 -0.000000 0.000000 1.000000 1.000000 1.000000
171 1 125.219128 205.323217 125.219128 205.323217 0.000000 -0.000000 1.000000 1.000000 1.000000
172 1 43.310006 15.760841 43.310006 15.760841 0.000000 0.000000 1.000000 1.000000 1.000000
173 1 29.826200 125.475111 29.826200 125.475111 -0.000000 -0.000000 1.000000 1.000000 1.000000
174 1 134.504710 25.822644 134.504710 25.822644 -0.000000 -0.000000 1.000000 1.000000 1.000000
175 1 30.571765 258.609251 30.571765 258.609251 0.000000 -0.000000 1.000000 1.000000 1.000000
176 1 42.418599 227.570078 42.418599 227.570078 -0.000000 0.000000 1.000000 1.000000 1.000000
177 1 174.340795 21.362626 174.340795 21.362626 -0.000000 -0.000000 1.000000 1.000000 1.000000
178 1 48.884045 18.894490 48.884045 18.894490 -0.000000 -0.000000 1.000000 1.000000 1.000000
179 1 57.051668 6.091354 57.051668 6.091354 0.000000 -0.000000 1.000000 1.000000 1.000000
180 1 254.241873 219.478903 -9.536235 219.478903 -0.000000 -0.000000 1.000000 1.000000 1.000000
181 1 21.686709 131.470137 21.686709 131.470137 -0.000000 0.000000 1.000000 1.000000 1.000000
182 1 189.547021 198.728891 189.547021 198.728891 -0.000000 -0.000000 1.000000 1.000000 1.000000
183 1 85.022030 139.188313 85.022030 139.188313 -0.000000 0.000000 1.000000 1.000000 1.000000
184 1 26.457053 142.324747 26.457053 142.324747 -0.000000 0.000000 1.000000 1.000000 1.000000
185 1 5.408084 210.414667 5.408084 210.414667 -0.000000 -0.000000 1.000000 1.000000 1.000000
186 1 77.901474 86.227737 77.901474 86.227737 0.000000 -0.000000 1.000000 1.000000 1.000000
187 1 256.624974 123.246187 256.624974 123.246187 0.000000 -0.000000 1.000000 1.000000 1.000000
188 1 40.658069 181.263153 40.658069 181.263153 -0.000000 0.000000 1.000000 1.000000 1.000000
189 1 15.227115 37.131996 15.227115 37.131996 0.000000 0.000000 1.000000 1.000000 1.000000
190 1 179.245710 197.189369 179.245710 197.189369 0.000000 0.000000 1.000000 1.000000 1.000000
191 1 62.725257 233.199278 62.725257 233.199278 0.000000 -0.000000 1.000000 1.000000 1.000000
192 1 13.167904 18.979656 13.167904 18.979656 0.000000 0.000000 1.000000 1.000000 1.000000
193 1 28.688219 31.977001 28.688219 31.977001 -0.000000 0.000000 1.000000 1.000000 1.000000
194 1 231.551103 251.014054 231.551103 251.014054 -0.000000 0.000000 1.000000 1.000000 1.000000
195 1 244.358042 242.469291 244.358042 242.469291 -0.000000 -0.000000 1.000000 1.000000 1.000000
196 1 75.844252 101.707782 75.844252 101.707782 -0.000000 0.000000 1.000000 1.000000 1.000000
197 1 26.072553 56.522920 26.072553 56.522920 -0.000000 0.000000 1.000000 1.000000 1.000000
198 1 34.118528 218.783934 34.118528 218.783934 0.000000 -0.000000 1.000000 1.000000 1.000000
199 1 2.092249 36.261731 2.092249 36.261731 -0.000000 0.000000 1.000000 1.000000 1.000000
200 1 158.573378 203.348727 158.573378 203.348727 0.000000 -0.000000 1.000000 1.000000 1.000000
201 1 128.498748 167.810740 128.498748 167.810740 0.000000 -0.000000 1.000000 1.000000 1.000000
202 1 154.538902 3.339316 154.538902 3.339316 0.000000 0.000000 1.000000 1.000000 1.000000
203 1 12.164021 123.576506 12.164021 123.576506 -0.000000 -0.000000 1.000000 1.000000 1.000000
204 1 188.826975 247.454418 188.826975 247.454418 0.000000 0.000000 1.000000 1.000000 1.000000
205 1 200.070230 225.375668 200.070230 225.375668 0.000000 -0.000000 1.000000 1.000000 1.000000
206 1 255.019696 198.431730 255.019696 198.431730 -0.000000 -0.000000 1.000000 1.000000 1.000000
207 1 246.055557 208.246375 246.055557 208.246375 -0.000000 0.000000 1.000000 1.000000 1.000000
208 1 159.181223 53.337960 159.181223 53.337960 -0.000000 0.000000 1.000000 1.000000 1.000000
209 1 244.120491 0.076152 244.120491 0.076152 0.000000 0.000000 1.000000 1.000000 1.000000
210 1 184.533932 243.007896 184.533932 243.007896 0.000000 0.000000 1.000000 1.000000 1.000000
211 1 234.939071 37.337308 234.939071 37.337308 -0.000000 0.000000 1.000000 1.000000 1.000000
212 1 263.315728 224.816005 -0.462380 224.816005 -0.000000 0.000000 1.000000 1.000000 1.000000
213 1 85.926665 200.435028 85.926665 200.435028 -0.000000 -0.000000 1.000000 1.000000 1.000000
214 1 122.479949 200.917936 122.479949 200.917936 -0.000000 -0.000000 1.000000 1.000000 1.000000
215 1 251.027336 232.817902 251.027336 232.817902 -0.000000 -0.000000 1.000000 1.000000 1.000000
216 1 87.887823 233.250865 87.887823 233.250865 -0.000000 -0.000000 1.000000 1.000000 1.000000
217 1 236.367475 173.597696 236.367475 173.597696 -0.000000 0.000000 1.000000 1.000000 1.000000
218 1 18.418623 156.210427 18.418623 156.210427 0.000000 -0.000000 1.000000 1.000000 1.000000
219 1 9.310404 194.746033 9.310404 194.746033 -0.000000 -0.000000 1.000000 1.000000 1.000000
220 1 258.099364 18.371068 258.099364 18.371068 -0.000000 0.000000 1.000000 1.000000 1.000000
221 1 57.444940 169.325332 57.444940 169.325332 0.000000 -0.000000 1.000000 1.000000 1.000000
222 1 193.209165 65.199647 193.209165 65.199647 -0.000000 -0.000000 1.000000 1.000000 1.000000
223 1 237.108367 38.517441 237.108367 38.517441 -0.000000 -0.000000 1.000000 1.000000 1.000000
224 1 72.641395 216.578319 72.641395 216.578319 0.000000 -0.000000 1.000000 1.000000 1.000000
225 1 171.393049 34.429448 171.393049 34.429448 -0.000000 -0.000000 1.000000 1.000000 1.000000
226 1 89.088676 46.491098 89.088676 46.491098 0.000000 -0.000000 1.000000 1.000000 1.000000
227 1 64.644059 263.508841 64.644059 -0.269267 0.000000 -0.000000 1.000000 1.000000 1.000000
228 1 115.273858 222.671910 115.273858 222.671910 0.000000 -0.000000 1.000000 1.000000 1.000000
229 1 122.632249 222.769187 122.632249 222.769187 0.000000 0.000000 1.000000 1.000000 1.000000
230 1 190.479230 140.141953 190.479230 140.141953 0.000000 -0.000000 1.000000 1.000000 1.000000
231 1 160.263327 57.687129 160.263327 57.687129 0.000000 -0.000000 1.000000 1.000000 1.000000
232 1 180.526305 173.951014 180.526305 173.951014 0.000000 -0.000000 1.000000 1.000000 1.000000
233 1 6.389899 39.085308 6.389899 39.085308 -0.000000 0.000000 1.000000 1.000000 1.000000
234 1 152.678897 99.247765 152.678897 99.247765 0.000000 0.000000 1.000000 1.000000 1.000000
235 1 136.967641 25.174958 136.967641 25.174958 0.000000 -0.000000 1.000000 1.000000 1.000000
236 1 255.140851 52.780433 255.140851 52.780433 0.000000 0.000000 1.000000 1.000000 1.000000
237 1 104.138355 195.258794 104.138355 195.258794 -0.000000 -0.000000 1.000000 1.000000 1.000000
238 1 136.034236 157.736170 136.034236 157.736170 -0.000000 0.000000 1.000000 1.000000 1.000000
239 1 203.784659 262.884318 203.784659 -0.893790 -0.000000 0.000000 1.000000 1.000000 1.000000
240 1 187.256534 164.160615 187.256534 164.160615 0.000000 0.000000 1.000000 1.000000 1.000000
241 1 97.309966 124.523624 97.309966 124.523624 0.000000 0.000000 1.000000 1.000000 1.000000
242 1 37.501209 232.132240 37.501209 232.132240 -0.000000 0.000000 1.000000 1.000000 1.000000
243 1 226.922950 103.490987 226.922950 103.490987 0.000000 -0.000000 1.000000 1.000000 1.000000
244 1 23.715510 187.464088 23.715510 187.464088 0.000000 -0.000000 1.000000 1.000000 1.000000
245 1 159.115117 13.320824 159.115117 13.320824 -0.000000 0.000000 1.000000 1.000000 1.000000
246 1 30.724561 199.153487 30.724561 199.153487 -0.000000 -0.000000 1.000000 1.000000 1.000000
247 1 236.347382 188.530125 236.347382 188.530125 -0.000000 -0.000000 1.000000 1.000000 1.000000
248 1 132.786773 143.354145 132.786773 143.354145 -0.000000 0.000000 1.000000 1.000000 1.000000
249 1 135.605448 36.473213 135.605448 36.473213 0.000000 -0.000000 1.000000 1.000000 1.000000
250 1 83.170096 109.623337 83.170096 109.623337 -0.000000 -0.000000 1.000000 1.000000 1.000000
251 1 178.919018 134.083061 178.919018 134.083061 0.000000 0.000000 1.000000 1.000000 1.000000
252 1 28.673744 242.642641 28.673744 242.642641 -0.000000 -0.000000 1.000000 1.000000 1.000000
253 1 185.634227 221.572794 185.634227 221.572794 0.000000 0.000000 1.000000 1.000000 1.000000
254 1 22.510624 231.146976 22.510624 231.146976 -0.000000 -0.000000 1.000000 1.000000 1.000000
255 1 248.760938 134.408707 248.760938 134.408707 -0.000000 0.000000 1.000000 1.000000 1.000000
256 1 110.402953 263.060176 110.402953 -0.717932 -0.000000 -0.000000 1.000000 1.000000 1.000000
257 1 224.598211 62.121902 224.598211 62.121902 -0.000000 -0.000000 1.000000 1.000000 1.000000
258 1 98.533452 199.468085 98.533452 199.468085 0.000000 0.000000 1.000000 1.000000 1.000000
259 1 232.322695 241.402799 232.322695 241.402799 -0.000000 0.000000 1.000000 1.000000 1.000000
260 1 67.134908 8.264470 67.134908 272.042578 -0.000000 -0.000000 1.000000 1.000000 1.000000
261 1 51.806486 202.649034 51.806486 202.649034 -0.000000 0.000000 1.000000 1.000000 1.000000
262 1 209.214817 140.298260 209.214817 140.298260 0.000000 -0.000000 1.000000 1.000000 1.000000
263 1 241.743292 199.869379 241.743292 199.869379 0.000000 -0.000000 1.000000 1.000000 1.000000
264 1 207.043945 248.862351 207.043945 248.862351 -0.000000 0.000000 1.000000 1.000000 1.000000
265 1 118.456936 182.836622 118.456936 182.836622 0.000000 0.000000 1.000000 1.000000 1.000000
266 1 109.743903 107.945713 109.743903 107.945713 0.000000 -0.000000 1.000000 1.000000 1.000000
267 1 46.470161 67.108292 46.470161 67.108292 -0.000000 -0.000000 1.000000 1.000000 1.000000
268 1 177.748952 263.405309 177.748952 -0.372799 0.000000 0.000000 1.000000 1.000000 1.000000
269 1 134.799259 178.295526 134.799259 178.295526 -0.000000 -0.000000 1.000000 1.000000 1.000000
270 1 229.312306 80.698776 229.312306 80.698776 0.000000 -0.000000 1.000000 1.000000 1.000000
271 1 148.070628 115.258147 148.070628 115.258147 -0.000000 0.000000 1.000000 1.000000 1.000000
272 1 32.957827 159.354717 32.957827 159.354717 0.000000 -0.000000 1.000000 1.000000 1.000000
273 1 42.193039 232.841330 42.193039 232.841330 0.000000 0.000000 1.000000 1.000000 1.000000
274 1 221.925098 107.810338 221.925098 107.810338 0.000000 0.000000 1.000000 1.000000 1.000000
275 1 107.958296 46.195427 107.958296 46.195427 -0.000000 -0.000000 1.000000 1.000000 1.000000
276 1 41.670507 105.203679 41.670507 105.203679 -0.000000 -0.000000 1.000000 1.000000 1.000000
277 1 53.839527 7.028440 53.839527 270.806548 0.000000 -0.000000 1.000000 1.000000 1.000000
278 1 21.784239 34.871295 21.784239 34.871295 0.000000 0.000000 1.000000 1.000000 1.000000
279 1 130.854217 181.569283 130.854217 181.569283 -0.000000 -0.000000 1.000000 1.000000 1.000000
280 1 189.129459 24.654079 189.129459 24.654079 0.000000 -0.000000 1.000000 1.000000 1.000000
281 1 196.856304 6.905593 196.856304 6.905593 -0.000000 0.000000 1.000000 1.000000 1.000000
282 1 166.476434 32.071166 166.476434 32.071166 0.000000 -0.000000 1.000000 1.000000 1.000000
283 1 263.637323 18.535137 263.637323 18.535137 -0.000000 0.000000 1.000000 1.000000 1.000000
284 1 114.148642 158.732384 114.148642 158.732384 0.000000 -0.000000 1.000000 1.000000 1.000000
285 1 223.346212 53.538787 223.346212 53.538787 0.000000 0.000000 1.000000 1.000000 1.000000
286 1 246.050479 78.509307 246.050479 78.509307 -0.000000 0.000000 1.000000 1.000000 1.000000
287 1 147.074018 1.347197 147.074018 1.347197 0.000000 -0.000000 1.000000 1.000000 1.000000
288 1 149.162827 259.531663 149.162827 -4.246445 0.000000 -0.000000 1.000000 1.000000 1.000000
289 1 246.098406 0.426162 246.098406 0.426162 -0.000000 0.000000 1.000000 1.000000 1.000000
290 1 223.933991 48.989140 223.933991 48.989140 -0.000000 0.000000 1.000000 1.000000 1.000000
291 1 65.655624 99.736811 65.655624 99.736811 -0.000000 0.000000 1.000000 1.000000 1.000000
292 1 189.405833 240.126857 189.405833 240.126857 -0.000000 -0.000000 1.000000 1.000000 1.000000
293 1 239.546764 232.135647 239.546764 232.135647 -0.000000 0.000000 1.000000 1.000000 1.000000
294 1 257.046349 82.267077 257.046349 82.267077 0.000000 -0.000000 1.000000 1.000000 1.000000
295 1 86.723249 56.138316 86.723249 56.138316 0.000000 -0.000000 1.000000 1.000000 1.000000
296 1 263.617199 129.920072 -0.160909 129.920072 -0.000000 -0.000000 1.000000 1.000000 1.000000
297 1 28.182430 109.486418 28.182430 109.486418 -0.000000 -0.000000 1.000000 1.000000 1.000000
298 1 178.899590 229.662246 178.899590 229.662246 -0.000000 -0.000000 1.000000 1.000000 1.000000
299 1 151.836617 135.381180 151.836617 135.381180 0.000000 -0.000000 1.000000 1.000000 1.000000
300 1 212.262751 17.213665 212.262751 17.213665 -0.000000 -0.000000 1.000000 1.000000 1.000000
301 1 70.536524 238.595770 70.536524 238.595770 -0.000000 0.000000 1.000000 1.000000 1.000000
302 1 195.090358 105.962528 195.090358 105.962528 -0.000000 -0.000000 1.000000 1.000000 1.000000
303 1 19.982869 186.710706 19.982869 186.710706 -0.000000 -0.000000 1.000000 1.000000 1.000000
304 1 241.614573 166.296900 241.614573 166.296900 -0.000000 0.000000 1.000000 1.000000 1.000000
305 1 83.179024 49.178537 83.179024 49.178537 -0.000000 0.000000 1.000000 1.000000 1.000000
306 1 261.321321 114.090629 -2.456787 114.090629 -0.000000 -0.000000 1.000000 1.000000 1.000000
307 1 89.962630 124.162415 89.962630 124.162415 0.000000 0.000000 1.000000 1.000000 1.000000
308 1 227.107147 48.535311 227.107147 48.535311 0.000000 0.000000 1.000000 1.000000 1.000000
309 1 90.433186 34.139582 90.433186 34.139582 0.000000 -0.000000 1.000000 1.000000 1.000000
310 1 191.680769 116.131658 191.680769 116.131658 0.000000 0.000000 1.000000 1.000000 1.000000
311 1 85.253122 242.711144 85.253122 242.711144 0.000000 0.000000 1.000000 1.000000 1.000000
312 1 111.157351 21.114103 111.157351 21.114103 0.000000 -0.000000 1.000000 1.000000 1.000000
313 1 159.821980 134.980805 159.821980 134.980805 -0.000000 0.000000 1.000000 1.000000 1.000000
314 1 183.591913 157.560540 183.591913 157.560540 -0.000001 -0.000001 1.000000 1.000000 1.000000
315 1 125.946239 262.719586 125.946239 -1.058522 -0.000000 -0.000000 1.000000 1.000000 1.000000
316 1 10.927499 5.661943 10.927499 5.661943 0.000000 0.000000 1.000000 1.000000 1.000000