ITEM: TIMESTEP
1400.000000
ITEM: NUMBER OF ATOMS
5000
ITEM: BOX BOUNDS xy xz yz
0 317.258526 0
0 317.258526 0
0 2 0
ITEM: ATOMS id type x y xu yu vx vy radius m z
0 1 94.953280 15.528069 94.953280 15.528069 0.000000 -0.000000 1.000000 1.000000 1.000000
1 1 88.366175 301.049219 88.366175 301.049219 0.000000 0.000000 1.000000 1.000000 1.000000
2 1 204.057521 230.869927 204.057521 230.869927 0.000000 -0.000000 1.000000 1.000000 1.000000
3 1 121.807688 148.312782 121.807688 148.312782 0.000000 -0.000000 1.000000 1.000000 1.000000
4 1 33.027231 278.676325 33.027231 278.676325 0.000000 -0.000000 1.000000 1.000000 1.000000
5 1 116.638785 192.959150 116.638785 192.959150 -0.000000 0.000000 1.000000 1.000000 1.000000
6 1 160.128117 267.389607 160.128117 267.389607 -0.000000 0.000000 1.000000 1.000000 1.000000
7 1 296.713028 245.319549 296.713028 245.319549 0.000000 -0.000000 1.000000 1.000000 1.000000
8 1 163.626040 78.600361 163.626040 78.600361 0.000000 0.000000 1.000000 1.000000 1.000000
9 1 58.293497 19.914599 58.293497 337.173125 -0.000000 0.000000 1.000000 1.000000 1.000000
10 1 209.885843 41.097891 209.885843 41.097891 0.000000 -0.000000 1.000000 1.000000 1.000000
11 1 241.639339 141.280343 241.639339 141.280343 0.000000 -0.000000 1.000000 1.000000 1.000000
12 1 272.953728 94.824432 272.953728 94.824432 0.000000 -0.000000 1.000000 1.000000 1.000000
13 1 276.181892 275.786381 276.181892 275.786381 0.000000 0.000000 1.000000 1.000000 1.000000
14 1 49.898759 246.112738 49.898759 246.112738 -0.000000 0.000000 1.000000 1.000000 1.000000
15 1 291.526444 32.602294 291.526444 32.602294 0.000000 0.000000 1.000000 1.000000 1.000000
16 1 31.149509 143.035712 31.149509 143.035712 -0.000000 -0.000000 1.000000 1.000000 1.000000
17 1 257.746410 182.876805 257.746410 182.876805 0.000000 0.000000 1.000000 1.000000 1.000000
18 1 235.433374 236.643678 235.433374 236.643678 0.000000 -0.000000 1.000000 1.000000 1.000000
19 1 57.644832 307.474609 57.644832 307.474609 -0.000000 -0.000000 1.000000 1.000000 1.000000
20 1 234.530907 151.232393 234.530907 151.232393 0.000000 0.000000 1.000000 1.000000 1.000000
21 1 107.292713 235.759580 107.292713 235.759580 -0.000000 0.000000 1.000000 1.000000 1.000000
22 1 21.180321 310.370423 21.180321 -6.888103 -0.000000 0.000000 1.000000 1.000000 1.000000
23 1 259.032513 262.195560 259.032513 262.195560 0.000000 0.000000 1.000000 1.000000 1.000000
24 1 219.069315 215.905921 219.069315 215.905921 0.000000 -0.000000 1.000000 1.000000 1.000000
25 1 42.020884 5.045951 42.020884 5.045951 -0.000000 0.000000 1.000000 1.000000 1.000000
26 1 222.078565 73.976412 222.078565 73.976412 -0.000000 0.000000 1.000000 1.000000 1.000000
27 1 117.587883 107.413998 117.587883 107.413998 0.000000 -0.000000 1.000000 1.000000 1.000000
28 1 16.076891 190.053110 333.335417 190.053110 0.000000 -0.000000 1.000000 1.000000 1.000000
29 1 247.300438 47.666544 247.300438 47.666544 0.000000 0.000000 1.000000 1.000000 1.000000
30 1 264.631642 130.615849 264.631642 130.615849 0.000000 0.000000 1.000000 1.000000 1.000000
31 1 133.176798 110.047691 133.176798 110.047691 -0.000000 0.000000 1.000000 1.000000 1.000000
32 1 293.492593 211.112751 293.492593 211.112751 0.000000 0.000000 1.000000 1.000000 1.000000
33 1 278.467434 273.851409 278.467434 273.851409 0.000000 -0.000000 1.000000 1.000000 1.000000
34 1 211.963168 159.377011 211.963168 159.377011 -0.000000 0.000000 1.000000 1.000000 1.000000
35 1 112.080274 85.990940 112.080274 85.990940 0.000000 -0.000000 1.000000 1.000000 1.000000
36 1 48.186008 46.359302 48.186008 46.359302 0.000000 -0.000000 1.000000 1.000000 1.000000
37 1 144.102452 81.338421 144.102452 81.338421 -0.000000 -0.000000 1.000000 1.000000 1.000000
38 1 161.836778 112.262619 161.836778 112.262619 -0.000000 0.000000 1.000000 1.000000 1.000000
39 1 96.672739 0.273370 96.672739 0.273370 -0.000000 0.000000 1.000000 1.000000 1.000000
40 1 299.135329 231.516132 -18.123197 231.516132 -0.000000 0.000000 1.000000 1.000000 1.000000
41 1 147.152265 250.122152 147.152265 250.122152 0.000000 -0.000000 1.000000 1.000000 1.000000
42 1 278.764920 75.858691 278.764920 75.858691 -0.000000 0.000000 1.000000 1.000000 1.000000
43 1 250.061178 273.407943 250.061178 273.407943 0.000000 -0.000000 1.000000 1.000000 1.000000
44 1 71.642176 233.667993 71.642176 233.667993 -0.000000 0.000000 1.000000 1.000000 1.000000
45 1 188.481826 290.554763 188.481826 290.554763 -0.000000 0.000000 1.000000 1.000000 1.000000
46 1 176.826967 209.674293 176.826967 209.674293 -0.000000 -0.000000 1.000000 1.000000 1.000000
47 1 81.077706 158.153615 81.077706 158.153615 0.000000 -0.000000 1.000000 1.000000 1.000000
48 1 289.578169 170.953860 289.578169 170.953860 -0.000000 -0.000000 1.000000 1.000000 1.000000
49 1 95.416528 76.045428 95.416528 76.045428 0.000000 -0.000000 1.000000 1.000000 1.000000
50 1 57.123731 52.588888 57.123731 52.588888 -0.000000 -0.000000 1.000000 1.000000 1.000000
51 1 216.786093 216.548443 216.786093 216.548443 0.000000 -0.000000 1.000000 1.000000 1.000000
52 1 312.044487 282.804007 312.044487 282.804007 -0.000000 -0.000000 1.000000 1.000000 1.000000
53 1 173.353480 302.951546 173.353480 302.951546 0.000000 0.000000 1.000000 1.000000 1.000000
54 1 296.881645 153.497969 296.881645 153.497969 0.000000 0.000000 1.000000 1.000000 1.000000
55 1 98.451631 8.841886 98.451631 8.841886 -0.000000 0.000000 1.000000 1.000000 1.000000
56 1 272.778670 110.058751 272.778670 110.058751 0.000000 0.000000 1.000000 1.000000 1.000000
57 1 118.009296 218.597082 118.009296 218.597082 0.000000 0.000000 1.000000 1.000000 1.000000
58 1 167.905728 52.763019 167.905728 52.763019 0.000000 -0.000000 1.000000 1.000000 1.000000
59 1 237.103969 74.924940 237.103969 74.924940 -0.000000 -0.000000 1.000000 1.000000 1.000000
60 1 298.448018 158.085607 298.448018 158.085607 0.000000 -0.000000 1.000000 1.000000 1.000000
61 1 54.614849 272.092262 54.614849 272.092262 -0.000000 0.000000 1.000000 1.000000 1.000000
62 1 85.159550 304.064578 85.159550 -13.193948 0.000000 0.000000 1.000000 1.000000 1.000000
63 1 168.669056 139.668324 168.669056 139.668324 0.000000 0.000000 1.000000 1.000000 1.000000
64 1 32.075497 112.508198 32.075497 112.508198 -0.000000 -0.000000 1.000000 1.000000 1.000000
65 1 29.521816 259.449438 29.521816 259.449438 0.000000 0.000000 1.000000 1.000000 1.000000
66 1 211.619013 100.190584 211.619013 100.190584 0.000000 0.000000 1.000000 1.000000 1.000000
67 1 256.490441 26.585993 256.490441 26.585993 -0.000000 -0.000000 1.000000 1.000000 1.000000
68 1 202.268763 161.888472 202.268763 161.888472 -0.000000 0.000000 1.000000 1.000000 1.000000
69 1 222.371598 291.728951 222.371598 291.728951 -0.000000 -0.000000 1.000000 1.000000 1.000000
70 1 144.564344 26.988577 144.564344 26.988577 0.000000 -0.000000 1.000000 1.000000 1.000000
71 1 187.693125 49.759128 187.693125 49.759128 0.000000 -0.000000 1.000000 1.000000 1.000000
72 1 298.151152 196.844551 298.151152 196.844551 0.000000 -0.000000 1.000000 1.000000 1.000000
73 1 265.855729 52.748731 265.855729 52.748731 0.000000 0.000000 1.000000 1.000000 1.000000
74 1 286.613604 36.054650 286.613604 36.054650 0.000000 -0.000000 1.000000 1.000000 1.000000
75 1 192.622576 203.824697 192.622576 203.824697 -0.000000 0.000000 1.000000 1.000000 1.000000
76 1 49.180361 197.299831 49.180361 197.299831 -0.000000 0.000000 1.000000 1.000000 1.000000
77 1 276.383416 60.733622 276.383416 60.733622 0.000000 0.000000 1.000000 1.000000 1.000000
78 1 150.417010 198.917781 150.417010 198.917781 0.000000 -0.000000 1.000000 1.000000 1.000000
79 1 148.540363 291.471134 148.540363 291.471134 0.000000 -0.000000 1.000000 1.000000 1.000000
80 1 241.807893 255.190224 241.807893 255.190224 0.000000 0.000000 1.000000 1.000000 1.000000
81 1 126.439851 4.227380 126.439851 321.485906 -0.000000 0.000000 1.000000 1.000000 1.000000
82 1 234.363079 247.032511 234.363079 247.032511 -0.000000 -0.000000 1.000000 1.000000 1.000000
83 1 86.562013 87.089033 86.562013 87.089033 -0.000000 -0.000000 1.000000 1.000000 1.000000
84 1 166.049855 278.186585 166.049855 278.186585 0.000000 0.000000 1.000000 1.000000 1.000000
85 1 38.497865 10.719890 38.497865 10.719890 -0.000000 0.000000 1.000000 1.000000 1.000000
86 1 303.052217 215.617082 303.052217 215.617082 -0.000000 -0.000000 1.000000 1.000000 1.000000
87 1 172.121223 127.803119 172.121223 127.803119 -0.000000 -0.000000 1.000000 1.000000 1.000000
88 1 3.585012 63.100420 3.585012 63.100420 -0.000000 -0.000000 1.000000 1.000000 1.000000
89 1 291.375411 129.178523 291.375411 129.178523 -0.000000 0.000000 1.000000 1.000000 1.000000
90 1 294.990033 252.119899 294.990033 252.119899 0.000000 -0.000000 1.000000 1.000000 1.000000
91 1 263.287258 312.114660 263.287258 312.114660 -0.000000 -0.000000 1.000000 1.000000 1.000000
92 1 212.751082 266.707063 212.751082 266.707063 -0.000000 0.000000 1.000000 1.000000 1.000000
93 1 240.604623 38.015043 240.604623 38.015043 -0.000000 -0.000000 1.000000 1.000000 1.000000
94 1 99.768296 177.588314 99.768296 177.588314 0.000000 0.000000 1.000000 1.000000 1.000000
95 1 13.883592 57.860394 13.883592 57.860394 -0.000000 0.000000 1.000000 1.000000 1.000000
96 1 310.728613 188.364512 310.728613 188.364512 -0.000000 -0.000000 1.000000 1.000000 1.000000
97 1 204.851639 166.354048 204.851639 166.354048 0.000000 -0.000000 1.000000 1.000000 1.000000
98 1 244.445355 233.927595 244.445355 233.927595 -0.000000 0.000000 1.000000 1.000000 1.000000
99 1 65.420447 261.015397 65.420447 261.015397 0.000000 -0.000000 1.000000 1.000000 1.000000
100 1 232.677497 191.431402 232.677497 191.431402 0.000000 -0.000000 1.000000 1.000000 1.000000
101 1 60.017083 89.829054 60.017083 89.829054 0.000000 -0.000000 1.000000 1.000000 1.000000
102 1 236.169404 282.481044 236.169404 282.481044 0.000000 0.000000 1.000000 1.000000 1.000000
103 1 284.684875 303.675519 284.684875 303.675519 -0.000000 0.000000 1.000000 1.000000 1.000000
104 1 257.430987 31.426576 257.430987 31.426576 -0.000000 0.000000 1.000000 1.000000 1.000000
105 1 192.035563 228.028587 192.035563 228.028587 0.000000 0.000000 1.000000 1.000000 1.000000
106 1 167.439558 36.360848 167.439558 36.360848 0.000000 -0.000000 1.000000 1.000000 1.000000
107 1 208.616017 165.862028 208.616017 165.862028 0.000000 -0.000000 1.000000 1.000000 1.000000
108 1 24.309423 20.355857 24.309423 20.355857 -0.000000 0.000000 1.000000 1.000000 1.000000
109 1 310.049278 167.701758 310.049278 167.701758 0.000000 0.000000 1.000000 1.000000 1.000000
110 1 11.621215 307.701256 11.621215 -9.557270 -0.000000 -0.000000 1.000000 1.000000 1.000000
111 1 190.238159 2.702456 190.238159 2.702456 -0.000000 0.000000 1.000000 1.000000 1.000000
112 1 250.609430 136.104784 250.609430 136.104784 -0.000000 -0.000000 1.000000 1.000000 1.000000
113 1 129.599268 195.008775 129.599268 195.008775 -0.000000 0.000000 1.000000 1.000000 1.000000
114 1 186.538613 126.468919 186.538613 126.468919 -0.000000 -0.000000 1.000000 1.000000 1.000000
115 1 271.172028 91.385558 271.172028 91.385558 0.000000 -0.000000 1.000000 1.000000 1.000000
116 1 182.797761 189.408971 182.797761 189.408971 -0.000000 -0.000000 1.000000 1.000000 1.000000
117 1 289.720890 282.437829 289.720890 282.437829 -0.000000 0.000000 1.000000 1.000000 1.000000
118 1 122.507016 36.706536 122.507016 36.706536 0.000000 -0.000000 1.000000 1.000000 1.000000
119 1 47.651477 62.014255 47.651477 62.014255 -0.000000 0.000000 1.000000 1.000000 1.000000
120 1 232.821681 91.270101 232.821681 91.270101 0.000000 0.000000 1.000000 1.000000 1.000000
121 1 67.750276 158.120476 67.750276 158.120476 0.000000 0.000000 1.000000 1.000000 1.000000
122 1 71.835696 290.782853 71.835696 290.782853 -0.000000 0.000000 1.000000 1.000000 1.000000
123 1 270.943891 55.951641 270.943891 55.951641 -0.000000 -0.000000 1.000000 1.000000 1.000000
124 1 163.528649 81.268088 163.528649 81.268088 0.000000 -0.000000 1.000000 1.000000 1.000000
125 1 3.300521 299.850687 320.559047 299.850687 -0.000000 0.000000 1.000000 1.000000 1.000000
126 1 178.184911 81.536302 178.184911 81.536302 -0.000000 -0.000000 1.000000 1.000000 1.000000
127 1 226.279794 190.827443 226.279794 190.827443 0.000000 -0.000000 1.000000 1.000000 1.000000
128 1 17.467726 250.355237 17.467726 250.355237 -0.000000 -0.000000 1.000000 1.000000 1.000000
129 1 188.573994 56.803924 188.573994 56.803924 0.000000 -0.000000 1.000000 1.000000 1.000000
130 1 83.642236 50.641123 83.642236 50.641123 -0.000000 -0.000000 1.000000 1.000000 1.000000
131 1 108.100870 219.307595 108.100870 219.307595 -0.000000 -0.000000 1.000000 1.000000 1.000000
132 1 284.883355 97.149288 284.883355 97.149288 0.000000 0.000000 1.000000 1.000000 1.000000
133 1 264.184977 200.527671 264.184977 200.527671 0.000000 -0.000000 1.000000 1.000000 1.000000
134 1 311.506544 274.886593 311.506544 274.886593 -0.000000 -0.000000 1.000000 1.000000 1.000000
135 1 38.847303 163.091223 38.847303 163.091223 -0.000000 0.000000 1.000000 1.000000 1.000000
136 1 283.485743 291.051205 283.485743 291.051205 0.000000 -0.000000 1.000000 1.000000 1.000000
137 1 270.221699 169.140567 270.221699 169.140567 -0.000000 0.000000 1.000000 1.000000 1.000000
138 1 110.409273 284.393465 110.409273 284.393465 0.000000 -0.000000 1.000000 1.000000 1.000000
139 1 130.536708 123.840730 130.536708 123.840730 0.000000 -0.000000 1.000000 1.000000 1.000000
140 1 196.821053 171.439161 196.821053 171.439161 -0.000000 0.000000 1.000000 1.000000 1.000000
141 1 66.823782 297.413114 66.823782 297.413114 0.000000 0.000000 1.000000 1.000000 1.000000
142 1 311.411769 107.089973 -5.846757 107.089973 0.000000 -0.000000 1.000000 1.000000 1.000000
143 1 276.078454 208.010164 276.078454 208.010164 0.000000 -0.000000 1.000000 1.000000 1.000000
144 1 93.944090 231.134722 93.944090 231.134722 -0.000000 -0.000000 1.000000 1.000000 1.000000
145 1 308.199527 62.017770 308.199527 62.017770 -0.000000 0.000000 1.000000 1.000000 1.000000
146 1 70.730309 254.163985 70.730309 254.163985 -0.000000 -0.000000 1.000000 1.000000 1.000000
147 1 211.224446 282.817467 211.224446 282.817467 -0.000000 0.000000 1.000000 1.000000 1.000000
148 1 84.378016 219.732356 84.378016 219.732356 0.000000 -0.000000 1.000000 1.000000 1.000000
149 1 130.559943 51.913057 130.559943 51.913057 -0.000000 -0.000000 1.000000 1.000000 1.000000
150 1 128.089991 200.019489 128.089991 200.019489 -0.000000 -0.000000 1.000000 1.000000 1.000000
151 1 81.313026 218.827248 81.313026 218.827248 0.000000 -0.000000 1.000000 1.000000 1.000000
152 1 234.121612 93.123032 234.121612 93.123032 -0.000000 0.000000 1.000000 1.000000 1.000000
153 1 107.234780 133.592938 107.234780 133.592938 -0.000000 0.000000 1.000000 1.000000 1.000000
154 1 65.778989 255.436673 65.778989 255.436673 0.000000 0.000000 1.000000 1.000000 1.000000
155 1 308.683147 267.727629 308.683147 267.727629 0.000000 0.000000 1.000000 1.000000 1.000000
156 1 244.372686 279.983830 244.372686 279.983830 -0.000000 0.000000 1.000000 1.000000 1.000000
157 1 6.562947 266.360934 6.562947 266.360934 0.000000 -0.000000 1.000000 1.000000 1.000000
158 1 202.388620 116.665711 202.388620 116.665711 0.000000 -0.000000 1.000000 1.000000 1.000000
159 1 116.512279 87.384531 116.512279 87.384531 0.000000 0.000000 1.000000 1.000000 1.000000
160 1 273.855281 80.801275 273.855281 80.801275 0.000000 0.000000 1.000000 1.000000 1.000000
161 1 307.852418 279.587691 307.852418 279.587691 0.000000 0.000000 1.000000 1.000000 1.000000
162 1 269.448096 105.016823 269.448096 105.016823 0.000000 -0.000000 1.000000 1.000000 1.000000
163 1 121.316584 269.717660 121.316584 269.717660 0.000000 -0.000000 1.000000 1.000000 1.000000
164 1 283.964776 132.472385 283.964776 132.472385 0.000000 0.000000 1.000000 1.000000 1.000000
165 1 297.465312 118.397864 297.465312 118.397864 -0.000000 -0.000000 1.000000 1.000000 1.000000
166 1 309.816792 129.544783 309.816792 129.544783 0.000000 -0.000000 1.000000 1.000000 1.000000
167 1 141.616246 226.098456 141.616246 226.098456 0.000000 -0.000000 1.000000 1.000000 1.000000
168 1 250.598197 191.820297 250.598197 191.820297 0.000000 -0.000000 1.000000 1.000000 1.000000
169 1 100.686911 188.106159 100.686911 188.106159 0.000000 0.000000 1.000000 1.000000 1.000000
170 1 150.810723 153.384323 150.810723 153.384323 0.000000 0.000000 1.000000 1.000000 1.000000
171 1 179.918869 44.694891 179.918869 44.694891 -0.000000 -0.000000 1.000000 1.000000 1.000000
172 1 172.427258 245.807333 172.427258 245.807333 0.000000 -0.000000 1.000000 1.000000 1.000000
173 1 149.170419 308.573421 149.170419 308.573421 -0.000000 0.000000 1.000000 1.000000 1.000000
174 1 235.880275 106.313742 235.880275 106.313742 0.000000 0.000000 1.000000 1.000000 1.000000
175 1 18.873716 127.287730 18.873716 127.287730 0.000000 0.000000 1.000000 1.000000 1.000000
176 1 48.025595 160.201370 48.025595 160.201370 -0.000000 0.000000 1.000000 1.000000 1.000000
177 1 101.104604 225.686214 101.104604 225.686214 -0.000000 -0.000000 1.000000 1.000000 1.000000
178 1 118.073802 261.514458 118.073802 261.514458 0.000000 -0.000000 1.000000 1.000000 1.000000
179 1 6.839113 202.835825 6.839113 202.835825 0.000000 -0.000000 1.000000 1.000000 1.000000
180 1 166.201091 44.052258 166.201091 44.052258 -0.000000 -0.000000 1.000000 1.000000 1.000000
181 1 124.272636 46.064835 124.272636 46.064835 -0.000000 -0.000000 1.000000 1.000000 1.000000
182 1 22.497236 22.421948 339.755762 22.421948 0.000000 0.000000 1.000000 1.000000 1.000000
183 1 178.800422 53.752652 178.800422 53.752652 0.000000 0.000000 1.000000 1.000000 1.000000
184 1 128.090001 79.306842 128.090001 79.306842 0.000000 -0.000000 1.000000 1.000000 1.000000
185 1 313.743611 217.504913 -3.514915 217.504913 -0.000000 0.000000 1.000000 1.000000 1.000000
186 1 285.478795 67.169315 285.478795 67.169315 0.000000 0.000000 1.000000 1.000000 1.000000
187 1 56.259860 266.675220 56.259860 266.675220 0.000000 0.000000 1.000000 1.000000 1.000000
188 1 87.836319 127.299017 87.836319 127.299017 -0.000000 0.000000 1.000000 1.000000 1.000000
189 1 214.757313 190.433006 214.757313 190.433006 0.000000 -0.000000 1.000000 1.000000 1.000000
190 1 129.210697 232.182394 129.210697 232.182394 0.000000 -0.000000 1.000000 1.000000 1.000000
191 1 309.868431 280.084874 309.868431 280.084874 0.000000 0.000000 1.000000 1.000000 1.000000
192 1 228.134590 307.079723 228.134590 -10.178803 0.000000 -0.000000 1.000000 1.000000 1.000000
193 1 304.882635 37.035412 304.882635 37.035412 0.000000 0.000000 1.000000 1.000000 1.000000
194 1 133.423798 267.823355 133.423798 267.823355 -0.000000 -0.000000 1.000000 1.000000 1.000000
195 1 251.741138 229.976208 251.741138 229.976208 -0.000000 -0.000000 1.000000 1.000000 1.000000
196 1 129.324092 291.562618 129.324092 -25.695908 -0.000000 -0.000001 1.000000 1.000000 1.000000
197 1 130.993750 88.553581 130.993750 88.553581 0.000000 0.000000 1.000000 1.000000 1.000000
198 1 312.428608 40.505443 -4.829918 40.505443 0.000000 0.000000 1.000000 1.000000 1.000000
199 1 203.419931 114.312727 203.419931 114.312727 -0.000000 0.000000 1.000000 1.000000 1.000000
200 1 54.858782 138.345188 54.858782 138.345188 -0.000000 -0.000000 1.000000 1.000000 1.000000
201 1 184.371265 120.913260 184.371265 120.913260 0.000000 0.000000 1.000000 1.000000 1.000000
202 1 95.890984 172.908160 95.890984 172.908160 0.000000 0.000000 1.000000 1.000000 1.000000
203 1 285.544605 219.203130 285.544605 219.203130 -0.000000 0.000000 1.000000 1.000000 1.000000
204 1 97.889545 39.894120 97.889545 39.894120 0.000000 -0.000000 1.000000 1.000000 1.000000
205 1 130.872706 73.477011 130.872706 73.477011 -0.000000 0.000000 1.000000 1.000000 1.000000
206 1 202.977693 15.728578 202.977693 15.728578 -0.000000 0.000000 1.000000 1.000000 1.000000
207 1 50.083308 47.599692 50.083308 47.599692 0.000000 0.000000 1.000000 1.000000 1.000000
208 1 219.894726 147.016937 219.894726 147.016937 -0.000000 0.000000 1.000000 1.000000 1.000000
209 1 272.940871 305.413031 272.940871 305.413031 0.000000 0.000000 1.000000 1.000000 1.000000
210 1 77.150256 38.114638 77.150256 38.114638 0.000000 -0.000000 1.000000 1.000000 1.000000
211 1 14.129004 33.770721 14.129004 33.770721 -0.000000 0.000000 1.000000 1.000000 1.000000
212 1 91.673666 6.879369 91.673666 324.137895 -0.000000 -0.000000 1.000000 1.000000 1.000000
213 1 159.052539 94.973632 159.052539 94.973632 -0.000000 0.000000 1.000000 1.000000 1.000000
214 1 76.179966 113.375413 76.179966 113.375413 0.000000 -0.000000 1.000000 1.000000 1.000000
215 1 314.621004 229.413689 314.621004 229.413689 0.000000 -0.000000 1.000000 1.000000 1.000000
216 1 53.656018 130.547773 53.656018 130.547773 -0.000000 0.000000 1.000000 1.000000 1.000000
217 1 79.080119 272.067417 79.080119 272.067417 -0.000000 0.000000 1.000000 1.000000 1.000000
218 1 68.229953 176.587894 68.229953 176.587894 -0.000000 -0.000000 1.000000 1.000000 1.000000
219 1 226.536775 118.228027 226.536775 118.228027 -0.000000 0.000000 1.000000 1.000000 1.000000
220 1 194.644753 250.728240 194.644753 250.728240 0.000000 -0.000000 1.000000 1.000000 1.000000
221 1 234.896227 238.767790 234.896227 238.767790 -0.000000 -0.000000 1.000000 1.000000 1.000000
222 1 104.812456 304.221965 104.812456 304.221965 -0.000000 -0.000000 1.000000 1.000000 1.000000
223 1 308.115917 115.984039 308.115917 115.984039 0.000000 0.000000 1.000000 1.000000 1.000000
224 1 49.781397 84.631750 49.781397 84.631750 0.000000 0.000000 1.000000 1.000000 1.000000
225 1 193.553432 282.412694 193.553432 282.412694 0.000000 0.000000 1.000000 1.000000 1.000000
226 1 210.986920 154.901036 210.986920 154.901036 0.000000 -0.000000 1.000000 1.000000 1.000000
227 1 286.154250 253.614428 286.154250 253.614428 -0.000000 -0.000000 1.000000 1.000000 1.000000
228 1 141.847281 289.786592 141.847281 289.786592 -0.000000 0.000000 1.000000 1.000000 1.000000
229 1 111.564474 147.431352 111.564474 147.431352 -0.000000 0.000000 1.000000 1.000000 1.000000
230 1 247.107469 16.589306 247.107469 16.589306 0.000000 -0.000000 1.000000 1.000000 1.000000
231 1 6.900439 246.234651 6.900439 246.234651 -0.000000 -0.000000 1.000000 1.000000 1.000000
232 1 213.627582 211.082019 213.627582 211.082019 0.000000 -0.000000 1.000000 1.000000 1.000000
233 1 55.105862 44.205653 55.105862 44.205653 0.000000 -0.000000 1.000000 1.000000 1.000000
234 1 242.751679 283.550002 242.751679 283.550002 0.000000 0.000000 1.000000 1.000000 1.000000
235 1 145.434870 272.195606 145.434870 272.195606 -0.000000 0.000000 1.000000 1.000000 1.000000
236 1 76.979373 195.520808 76.979373 195.520808 -0.000000 0.000000 1.000000 1.000000 1.000000
237 1 239.787365 281.672169 239.787365 281.672169 -0.000000 0.000000 1.000000 1.000000 1.000000
238 1 53.713953 170.244147 53.713953 170.244147 -0.000000 -0.000000 1.000000 1.000000 1.000000
239 1 221.970796 106.120009 221.970796 106.120009 0.000000 0.000000 1.000000 1.000000 1.000000
240 1 95.753317 133.894948 95.753317 133.894948 0.000000 0.000000 1.000000 1.000000 1.000000
241 1 125.937248 260.456212 125.937248 260.456212 -0.000000 -0.000000 1.000000 1.000000 1.000000
242 1 29.899958 257.170956 29.899958 257.170956 0.000000 0.000000 1.000000 1.000000 1.000000
243 1 170.314156 234.601576 170.314156 234.601576 -0.000000 0.000000 1.000000 1.000000 1.000000
244 1 176.738435 273.285084 176.738435 273.285084 0.000000 0.000000 1.000000 1.000000 1.000000
245 1 82.114434 260.155135 82.114434 260.155135 0.000000 0.000000 1.000000 1.000000 1.000000
246 1 2.143417 252.591486 2.143417 252.591486 -0.000000 -0.000000 1.000000 1.000000 1.000000
247 1 204.471758 110.920709 204.471758 110.920709 -0.000000 0.000000 1.000000 1.000000 1.000000
248 1 302.461091 213.118509 302.461091 213.118509 -0.000000 -0.000000 1.000000 1.000000 1.000000
249 1 261.179831 70.787047 261.179831 70.787047 -0.000000 0.000000 1.000000 1.000000 1.000000
250 1 283.004218 22.034180 283.004218 22.034180 -0.000000 -0.000000 1.000000 1.000000 1.000000
251 1 245.580166 264.693476 245.580166 264.693476 0.000000 -0.000000 1.000000 1.000000 1.000000
252 1 203.317675 44.370429 203.317675 44.370429 0.000000 0.000000 1.000000 1.000000 1.000000
253 1 163.691721 254.596908 163.691721 254.596908 0.000000 0.000000 1.000000 1.000000 1.000000
254 1 1.243544 261.970451 318.502070 261.970451 -0.000000 0.000000 1.000000 1.000000 1.000000
255 1 129.351563 265.465270 129.351563 265.465270 -0.000000 -0.000000 1.000000 1.000000 1.000000
256 1 142.684516 169.351164 142.684516 169.351164 -0.000000 -0.000000 1.000000 1.000000 1.000000
257 1 138.335730 89.341114 138.335730 89.341114 -0.000000 -0.000000 1.000000 1.000000 1.000000
258 1 140.344973 138.921921 140.344973 138.921921 -0.000000 -0.000000 1.000000 1.000000 1.000000
259 1 264.470553 248.669774 264.470553 248.669774 -0.000000 0.000000 1.000000 1.000000 1.000000
260 1 118.794988 125.883832 118.794988 125.883832 0.000000 -0.000000 1.000000 1.000000 1.000000
261 1 133.782489 175.532780 133.782489 175.532780 -0.000000 0.000000 1.000000 1.000000 1.000000
262 1 185.444171 217.764868 185.444171 217.764868 0.000000 -0.000000 1.000000 1.000000 1.000000
263 1 145.521676 30.805604 145.521676 30.805604 0.000000 -0.000000 1.000000 1.000000 1.000000
264 1 144.887918 152.354614 144.887918 152.354614 0.000000 0.000000 1.000000 1.000000 1.000000
265 1 20.574477 78.414730 20.574477 78.414730 0.000000 -0.000000 1.000000 1.000000 1.000000
266 1 12.119367 190.540439 12.119367 190.540439 -0.000000 0.000000 1.000000 1.000000 1.000000
267 1 210.948546 246.611173 210.948546 246.611173 0.000000 -0.000000 1.000000 1.000000 1.000000
268 1 6.160290 21.698308 6.160290 21.698308 -0.000000 -0.000000 1.000000 1.000000 1.000000
269 1 187.312304 178.730469 187.312304 178.730469 0.000000 0.000000 1.000000 1.000000 1.000000
270 1 46.211707 150.919564 46.211707 150.919564 0.000000 0.000000 1.000000 1.000000 1.000000
271 1 64.954895 198.093761 64.954895 198.093761 0.000000 0.000000 1.000000 1.000000 1.000000
272 1 315.890908 237.190254 -1.367618 237.190254 0.000000 0.000000 1.000000 1.000000 1.000000
273 1 267.234487 301.189398 267.234487 301.189398 -0.000000 -0.000000 1.000000 1.000000 1.000000
274 1 173.204305 223.856739 173.204305 223.856739 -0.000000 0.000000 1.000000 1.000000 1.000000
275 1 124.235429 150.275697 124.235429 150.275697 -0.000000 -0.000000 1.000000 1.000000 1.000000
276 1 253.010198 26.915161 253.010198 26.915161 0.000000 0.000000 1.000000 1.000000 1.000000
277 1 220.215989 40.525084 220.215989 40.525084 -0.000000 -0.000000 1.000000 1.000000 1.000000
278 1 66.611969 16.349025 66.611969 333.607551 0.000000 0.000000 1.000000 1.000000 1.000000
279 1 41.759182 11.105014 41.759182 11.105014 0.000000 0.000000 1.000000 1.000000 1.000000
280 1 102.694885 284.885291 102.694885 284.885291 0.000000 -0.000000 1.000000 1.000000 1.000000
281 1 281.841176 265.564162 281.841176 265.564162 0.000000 0.000000 1.000000 1.000000 1.000000
282 1 51.322722 198.034799 51.322722 198.034799 0.000000 -0.000000 1.000000 1.000000 1.000000
283 1 117.192900 290.109839 117.192900 290.109839 -0.000000 -0.000000 1.000000 1.000000 1.000000
284 1 180.817481 173.657928 180.817481 173.657928 -0.000000 -0.000000 1.000000 1.000000 1.000000
285 1 203.855618 222.238271 203.855618 222.238271 0.000000 0.000000 1.000000 1.000000 1.000000
286 1 239.281785 23.736478 239.281785 23.736478 -0.000000 0.000000 1.000000 1.000000 1.000000
287 1 125.681551 277.602986 125.681551 277.602986 0.000000 0.000000 1.000000 1.000000 1.000000
288 1 158.258311 272.444092 158.258311 272.444092 0.000000 0.000000 1.000000 1.000000 1.000000
289 1 60.351774 81.258712 60.351774 81.258712 -0.000000 -0.000000 1.000000 1.000000 1.000000
290 1 135.888094 180.737053 135.888094 180.737053 0.000000 -0.000000 1.000000 1.000000 1.000000
291 1 125.443234 26.094494 125.443234 26.094494 -0.000000 0.000000 1.000000 1.000000 1.000000
292 1 155.016973 25.984399 155.016973 25.984399 -0.000000 -0.000000 1.000000 1.000000 1.000000
293 1 283.493425 314.092175 283.493425 -3.166351 0.000000 -0.000000 1.000000 1.000000 1.000000
294 1 6.157958 82.744196 6.157958 82.744196 -0.000000 0.000000 1.000000 1.000000 1.000000
295 1 5.221189 180.380267 5.221189 180.380267 -0.000000 0.000000 1.000000 1.000000 1.000000
296 1 66.935183 52.468875 66.935183 52.468875 0.000000 0.000000 1.000000 1.000000 1.000000
297 1 27.540091 189.134550 27.540091 189.134550 -0.000000 0.000000 1.000000 1.000000 1.000000
298 1 10.029863 62.105382 10.029863 62.105382 -0.000000 0.000000 1.000000 1.000000 1.000000
299 1 192.384607 302.965046 192.384607 302.965046 0.000000 -0.000000 1.000000 1.000000 1.000000
300 1 282.291035 212.025150 282.291035 212.025150 -0.000000 -0.000000 1.000000 1.000000 1.000000
301 1 310.858385 237.599288 -6.400141 237.599288 0.000000 -0.000000 1.000000 1.000000 1.000000
302 1 308.858695 171.097553 -8.399831 171.097553 -0.000000 -0.000000 1.000000 1.000000 1.000000
303 1 154.786010 190.177736 154.786010 190.177736 -0.000000 0.000000 1.000000 1.000000 1.000000
304 1 294.049421 128.806331 294.049421 128.806331 -0.000000 0.000000 1.000000 1.000000 1.000000
305 1 171.049186 306.774306 171.049186 -10.484220 0.000000 -0.000000 1.000000 1.000000 1.000000
306 1 3.040957 255.643524 3.040957 255.643524 0.000000 -0.000000 1.000000 1.000000 1.000000
307 1 284.308358 300.051425 284.308358 300.051425 0.000000 0.000000 1.000000 1.000000 1.000000
308 1 139.624346 275.452424 139.624346 275.452424 -0.000000 -0.000000 1.000000 1.000000 1.000000
309 1 19.445568 15.601450 19.445568 15.601450 0.000000 -0.000000 1.000000 1.000000 1.000000
310 1 39.857639 16.980112 39.857639 16.980112 0.000000 -0.000000 1.000000 1.000000 1.000000
311 1 189.509298 71.971412 189.509298 71.971412 -0.000000 0.000000 1.000000 1.000000 1.000000
312 1 145.022681 42.205435 145.022681 42.205435 0.000000 0.000000 1.000000 1.000000 1.000000
313 1 156.725996 100.718209 156.725996 100.718209 -0.000000 0.000000 1.000000 1.000000 1.000000
314 1 81.112631 86.088139 81.112631 86.088139 0.000000 0.000000 1.000000 1.000000 1.000000
315 1 295.189848 3.751342 295.189848 321.009868 -0.000000 0.000000 1.000000 1.000000 1.000000