ITEM: TIMESTEP
900.000000
ITEM: NUMBER OF ATOMS
5000
ITEM: BOX BOUNDS xy xz yz
0 292.711146 0
0 292.711146 0
0 2 0
ITEM: ATOMS id type x y xu yu vx vy radius m z
0 1 42.106528 272.072008 42.106528 272.072008 -0.000000 0.000000 1.000000 1.000000 1.000000
1 1 46.976336 126.791872 46.976336 126.791872 -0.000000 -0.000000 1.000000 1.000000 1.000000
2 1 49.453261 246.068821 49.453261 246.068821 0.000000 -0.000000 1.000000 1.000000 1.000000
3 1 180.663877 47.746767 180.663877 47.746767 0.000000 0.000000 1.000000 1.000000 1.000000
4 1 92.061782 28.906827 92.061782 28.906827 0.000000 -0.000000 1.000000 1.000000 1.000000
5 1 123.088024 240.419325 123.088024 240.419325 0.000000 0.000000 1.000000 1.000000 1.000000
6 1 223.826933 279.667330 223.826933 279.667330 0.000000 -0.000000 1.000000 1.000000 1.000000
7 1 190.474011 129.351092 190.474011 129.351092 0.000000 -0.000000 1.000000 1.000000 1.000000
8 1 265.353681 85.417720 265.353681 85.417720 0.000000 -0.000000 1.000000 1.000000 1.000000
9 1 241.108698 180.445169 241.108698 180.445169 0.000000 0.000000 1.000000 1.000000 1.000000
10 1 153.546755 275.905825 153.546755 275.905825 -0.000000 -0.000000 1.000000 1.000000 1.000000
11 1 208.743862 227.721359 208.743862 227.721359 -0.000000 -0.000000 1.000000 1.000000 1.000000
12 1 138.562902 250.625375 138.562902 250.625375 -0.000000 -0.000000 1.000000 1.000000 1.000000
13 1 54.191228 67.994990 54.191228 67.994990 -0.000000 0.000000 1.000000 1.000000 1.000000
14 1 208.081361 56.120773 208.081361 56.120773 -0.000000 0.000000 1.000000 1.000000 1.000000
15 1 188.033030 79.802509 188.033030 79.802509 -0.000000 -0.000000 1.000000 1.000000 1.000000
16 1 81.004699 292.663254 81.004699 292.663254 0.000000 -0.000000 1.000000 1.000000 1.000000
17 1 219.920567 120.223995 219.920567 120.223995 -0.000000 -0.000000 1.000000 1.000000 1.000000
18 1 170.818330 274.179340 170.818330 274.179340 0.000000 0.000000 1.000000 1.000000 1.000000
19 1 182.244354 163.763443 182.244354 163.763443 0.000000 -0.000000 1.000000 1.000000 1.000000
20 1 181.288769 150.881248 181.288769 150.881248 0.000000 0.000000 1.000000 1.000000 1.000000
21 1 168.577912 81.080148 168.577912 81.080148 -0.000000 0.000000 1.000000 1.000000 1.000000
22 1 195.966454 69.957131 195.966454 69.957131 -0.000000 0.000000 1.000000 1.000000 1.000000
23 1 218.602926 234.295258 218.602926 234.295258 0.000000 -0.000000 1.000000 1.000000 1.000000
24 1 140.598877 87.532856 140.598877 87.532856 -0.000000 0.000000 1.000000 1.000000 1.000000
25 1 26.816526 219.985742 26.816526 219.985742 0.000000 0.000000 1.000000 1.000000 1.000000
26 1 127.290693 2.462382 127.290693 295.173528 0.000000 0.000000 1.000000 1.000000 1.000000
27 1 83.489044 169.611843 83.489044 169.611843 0.000000 0.000000 1.000000 1.000000 1.000000
28 1 72.583569 180.839691 72.583569 180.839691 -0.000000 0.000000 1.000000 1.000000 1.000000
29 1 292.248016 27.529040 292.248016 27.529040 0.000000 -0.000000 1.000000 1.000000 1.000000
30 1 236.935915 255.882970 236.935915 255.882970 -0.000000 0.000000 1.000000 1.000000 1.000000
31 1 195.905296 215.219816 195.905296 215.219816 0.000000 0.000000 1.000000 1.000000 1.000000
32 1 204.289963 19.571286 204.289963 19.571286 0.000000 0.000000 1.000000 1.000000 1.000000
33 1 84.769025 264.901024 84.769025 264.901024 0.000000 0.000001 1.000000 1.000000 1.000000
34 1 26.071586 167.991935 26.071586 167.991935 0.000000 0.000000 1.000000 1.000000 1.000000
35 1 174.027390 185.933581 174.027390 185.933581 0.000000 0.000000 1.000000 1.000000 1.000000
36 1 21.303127 198.295084 21.303127 198.295084 -0.000000 0.000000 1.000000 1.000000 1.000000
37 1 261.019618 97.888563 261.019618 97.888563 -0.000000 -0.000000 1.000000 1.000000 1.000000
38 1 50.930489 197.596479 50.930489 197.596479 0.000000 -0.000000 1.000000 1.000000 1.000000
39 1 138.454874 42.140785 138.454874 42.140785 0.000000 0.000000 1.000000 1.000000 1.000000
40 1 50.974290 268.503573 50.974290 268.503573 0.000000 0.000000 1.000000 1.000000 1.000000
41 1 8.730466 195.552259 8.730466 195.552259 -0.000000 -0.000000 1.000000 1.000000 1.000000
42 1 32.482056 87.471294 32.482056 87.471294 0.000000 -0.000000 1.000000 1.000000 1.000000
43 1 194.372782 156.344065 194.372782 156.344065 0.000000 -0.000000 1.000000 1.000000 1.000000
44 1 135.948741 42.913995 135.948741 42.913995 0.000000 -0.000000 1.000000 1.000000 1.000000
45 1 182.675181 3.683998 182.675181 3.683998 -0.000000 -0.000000 1.000000 1.000000 1.000000
46 1 11.347707 82.157876 304.058853 82.157876 0.000000 0.000000 1.000000 1.000000 1.000000
47 1 60.419807 270.711040 60.419807 270.711040 0.000000 -0.000000 1.000000 1.000000 1.000000
48 1 267.873653 187.126645 267.873653 187.126645 0.000000 0.000000 1.000000 1.000000 1.000000
49 1 225.821410 95.916677 225.821410 95.916677 -0.000000 -0.000000 1.000000 1.000000 1.000000
50 1 47.505640 105.894462 47.505640 105.894462 -0.000000 -0.000000 1.000000 1.000000 1.000000
51 1 273.456409 219.256235 273.456409 219.256235 0.000000 0.000000 1.000000 1.000000 1.000000
52 1 102.225280 82.989311 102.225280 82.989311 0.000000 0.000000 1.000000 1.000000 1.000000
53 1 121.344502 205.362509 121.344502 205.362509 -0.000000 0.000000 1.000000 1.000000 1.000000
54 1 182.092912 23.994345 182.092912 23.994345 -0.000000 0.000000 1.000000 1.000000 1.000000
55 1 140.789962 279.861387 140.789962 -12.849759 0.000000 -0.000000 1.000000 1.000000 1.000000
56 1 108.581175 83.336498 108.581175 83.336498 -0.000000 0.000000 1.000000 1.000000 1.000000
57 1 150.375856 46.187024 150.375856 46.187024 0.000000 -0.000000 1.000000 1.000000 1.000000
58 1 287.028829 178.647851 287.028829 178.647851 0.000000 -0.000000 1.000000 1.000000 1.000000
59 1 1.283833 125.889454 293.994979 125.889454 0.000000 0.000000 1.000000 1.000000 1.000000
60 1 76.081281 237.580016 76.081281 237.580016 0.000000 -0.000000 1.000000 1.000000 1.000000
61 1 276.747344 19.880538 276.747344 19.880538 -0.000000 0.000000 1.000000 1.000000 1.000000
62 1 266.890308 36.824380 266.890308 36.824380 0.000000 -0.000000 1.000000 1.000000 1.000000
63 1 204.441699 250.491635 204.441699 250.491635 0.000000 -0.000001 1.000000 1.000000 1.000000
64 1 128.164995 272.987604 128.164995 272.987604 -0.000000 -0.000000 1.000000 1.000000 1.000000
65 1 178.958489 88.289795 178.958489 88.289795 -0.000000 -0.000000 1.000000 1.000000 1.000000
66 1 92.980786 205.651448 92.980786 205.651448 -0.000000 0.000000 1.000000 1.000000 1.000000
67 1 26.189038 206.443324 26.189038 206.443324 0.000000 -0.000000 1.000000 1.000000 1.000000
68 1 139.206436 61.128176 139.206436 61.128176 -0.000000 -0.000000 1.000000 1.000000 1.000000
69 1 85.066976 131.360582 85.066976 131.360582 -0.000000 -0.000000 1.000000 1.000000 1.000000
70 1 186.015076 102.165519 186.015076 102.165519 0.000000 -0.000000 1.000000 1.000000 1.000000
71 1 119.209936 286.314139 119.209936 286.314139 -0.000000 -0.000000 1.000000 1.000000 1.000000
72 1 287.922816 110.023921 287.922816 110.023921 -0.000000 0.000000 1.000000 1.000000 1.000000
73 1 33.326027 279.308422 33.326027 279.308422 -0.000000 0.000000 1.000000 1.000000 1.000000
74 1 133.651474 224.208596 133.651474 224.208596 -0.000000 -0.000000 1.000000 1.000000 1.000000
75 1 5.828555 254.254850 5.828555 254.254850 -0.000000 -0.000000 1.000000 1.000000 1.000000
76 1 198.584087 18.758977 198.584087 18.758977 0.000000 0.000000 1.000000 1.000000 1.000000
77 1 288.716001 220.809856 288.716001 220.809856 -0.000000 0.000000 1.000000 1.000000 1.000000
78 1 112.754590 38.572996 112.754590 38.572996 0.000000 0.000000 1.000000 1.000000 1.000000
79 1 115.937110 34.405979 115.937110 34.405979 0.000000 -0.000000 1.000000 1.000000 1.000000
80 1 132.760691 169.976477 132.760691 169.976477 0.000000 -0.000000 1.000000 1.000000 1.000000
81 1 89.772903 120.110639 89.772903 120.110639 0.000000 0.000000 1.000000 1.000000 1.000000
82 1 195.454288 64.148043 195.454288 64.148043 -0.000000 -0.000000 1.000000 1.000000 1.000000
83 1 206.827899 25.992281 206.827899 25.992281 -0.000000 0.000000 1.000000 1.000000 1.000000
84 1 213.646834 66.904313 213.646834 66.904313 -0.000000 -0.000000 1.000000 1.000000 1.000000
85 1 225.725460 83.843498 225.725460 83.843498 -0.000000 0.000000 1.000000 1.000000 1.000000
86 1 138.052891 231.568192 138.052891 231.568192 -0.000000 0.000000 1.000000 1.000000 1.000000
87 1 176.761282 130.943282 176.761282 130.943282 -0.000000 0.000000 1.000000 1.000000 1.000000
88 1 30.084813 229.326851 30.084813 229.326851 -0.000000 0.000000 1.000000 1.000000 1.000000
89 1 281.394859 270.360839 281.394859 270.360839 0.000000 0.000000 1.000000 1.000000 1.000000
90 1 90.167517 30.353657 90.167517 30.353657 -0.000000 -0.000000 1.000000 1.000000 1.000000
91 1 174.719789 136.862009 174.719789 136.862009 0.000000 0.000000 1.000000 1.000000 1.000000
92 1 169.366927 99.978300 169.366927 99.978300 -0.000000 0.000000 1.000000 1.000000 1.000000
93 1 141.240373 173.210031 141.240373 173.210031 -0.000000 0.000000 1.000000 1.000000 1.000000
94 1 176.898416 28.750394 176.898416 28.750394 -0.000000 -0.000000 1.000000 1.000000 1.000000
95 1 230.911500 151.527606 230.911500 151.527606 -0.000000 0.000000 1.000000 1.000000 1.000000
96 1 104.315659 270.865924 104.315659 270.865924 0.000000 0.000000 1.000000 1.000000 1.000000
97 1 10.520472 156.055066 10.520472 156.055066 -0.000000 0.000000 1.000000 1.000000 1.000000
98 1 229.277670 74.639500 229.277670 74.639500 -0.000000 0.000000 1.000000 1.000000 1.000000
99 1 198.984885 83.595548 198.984885 83.595548 0.000000 -0.000000 1.000000 1.000000 1.000000
100 1 15.917670 153.381416 15.917670 153.381416 0.000000 -0.000000 1.000000 1.000000 1.000000
101 1 264.090974 134.413315 264.090974 134.413315 -0.000000 0.000000 1.000000 1.000000 1.000000
102 1 133.406298 54.068319 133.406298 54.068319 0.000000 0.000000 1.000000 1.000000 1.000000
103 1 262.070283 111.117145 262.070283 111.117145 0.000000 0.000000 1.000000 1.000000 1.000000
104 1 207.667726 76.797961 207.667726 76.797961 -0.000000 -0.000000 1.000000 1.000000 1.000000
105 1 242.011581 175.609856 242.011581 175.609856 0.000000 0.000000 1.000000 1.000000 1.000000
106 1 8.636271 109.743477 8.636271 109.743477 0.000000 -0.000000 1.000000 1.000000 1.000000
107 1 139.897920 21.408891 139.897920 21.408891 0.000000 -0.000000 1.000000 1.000000 1.000000
108 1 238.208316 31.832548 238.208316 31.832548 -0.000000 -0.000000 1.000000 1.000000 1.000000
109 1 247.390833 265.767370 247.390833 265.767370 0.000000 -0.000000 1.000000 1.000000 1.000000
110 1 286.216158 233.058975 -6.494988 233.058975 0.000000 -0.000000 1.000000 1.000000 1.000000
111 1 103.659956 59.048946 103.659956 59.048946 0.000000 -0.000000 1.000000 1.000000 1.000000
112 1 30.161111 112.238577 30.161111 112.238577 0.000000 -0.000000 1.000000 1.000000 1.000000
113 1 141.887362 170.982065 141.887362 170.982065 0.000000 0.000000 1.000000 1.000000 1.000000
114 1 73.656693 94.874692 73.656693 94.874692 0.000000 -0.000000 1.000000 1.000000 1.000000
115 1 35.161303 277.788240 35.161303 277.788240 0.000000 -0.000000 1.000000 1.000000 1.000000
116 1 84.788202 94.222828 84.788202 94.222828 -0.000000 0.000000 1.000000 1.000000 1.000000
117 1 33.763808 80.690634 33.763808 80.690634 0.000000 -0.000000 1.000000 1.000000 1.000000
118 1 216.514458 232.846111 216.514458 232.846111 0.000000 0.000000 1.000000 1.000000 1.000000
119 1 203.814835 31.792749 203.814835 31.792749 -0.000000 -0.000000 1.000000 1.000000 1.000000
120 1 13.799644 139.895538 13.799644 139.895538 -0.000000 -0.000000 1.000000 1.000000 1.000000
121 1 57.088391 206.147927 57.088391 206.147927 -0.000000 -0.000000 1.000000 1.000000 1.000000
122 1 224.817091 176.304964 224.817091 176.304964 0.000000 -0.000000 1.000000 1.000000 1.000000
123 1 78.094229 116.659536 78.094229 116.659536 0.000000 -0.000000 1.000000 1.000000 1.000000
124 1 143.032198 248.701845 143.032198 248.701845 -0.000000 0.000000 1.000000 1.000000 1.000000
125 1 146.665355 57.122363 146.665355 57.122363 -0.000000 -0.000000 1.000000 1.000000 1.000000
126 1 3.352912 260.255168 3.352912 260.255168 0.000000 -0.000000 1.000000 1.000000 1.000000
127 1 45.152224 80.298275 45.152224 80.298275 -0.000000 -0.000000 1.000000 1.000000 1.000000
128 1 215.306209 45.540041 215.306209 45.540041 -0.000000 0.000000 1.000000 1.000000 1.000000
129 1 125.492943 74.857068 125.492943 74.857068 -0.000000 -0.000000 1.000000 1.000000 1.000000
130 1 4.500092 169.345142 4.500092 169.345142 -0.000000 -0.000000 1.000000 1.000000 1.000000
131 1 9.191461 56.977186 9.191461 56.977186 -0.000000 0.000000 1.000000 1.000000 1.000000
132 1 11.567676 115.185469 11.567676 115.185469 -0.000000 -0.000000 1.000000 1.000000 1.000000
133 1 266.568103 173.217441 266.568103 173.217441 0.000000 -0.000000 1.000000 1.000000 1.000000
134 1 152.768638 254.296322 152.768638 254.296322 -0.000000 0.000000 1.000000 1.000000 1.000000
135 1 167.150205 17.075574 167.150205 17.075574 -0.000000 -0.000000 1.000000 1.000000 1.000000
136 1 73.469854 252.834293 73.469854 252.834293 0.000000 -0.000000 1.000000 1.000000 1.000000
137 1 54.366498 181.655439 54.366498 181.655439 0.000000 0.000000 1.000000 1.000000 1.000000
138 1 38.041099 81.576426 38.041099 81.576426 -0.000000 -0.000000 1.000000 1.000000 1.000000
139 1 245.670116 130.262384 245.670116 130.262384 0.000000 0.000000 1.000000 1.000000 1.000000
140 1 130.480439 282.388564 130.480439 282.388564 0.000000 0.000000 1.000000 1.000000 1.000000
141 1 25.117962 84.166605 25.117962 84.166605 0.000000 0.000000 1.000000 1.000000 1.000000
142 1 180.152134 31.233656 180.152134 31.233656 0.000000 -0.000000 1.000000 1.000000 1.000000
143 1 253.814556 122.595592 253.814556 122.595592 0.000000 0.000000 1.000000 1.000000 1.000000
144 1 10.766686 271.202184 10.766686 271.202184 0.000000 0.000000 1.000000 1.000000 1.000000
145 1 68.716429 130.266584 68.716429 130.266584 -0.000000 0.000000 1.000000 1.000000 1.000000
146 1 188.635186 113.077819 188.635186 113.077819 -0.000000 0.000000 1.000000 1.000000 1.000000
147 1 21.053291 106.316029 21.053291 106.316029 -0.000000 0.000000 1.000000 1.000000 1.000000
148 1 166.663983 170.015398 166.663983 170.015398 -0.000000 -0.000000 1.000000 1.000000 1.000000
149 1 284.679578 115.473317 284.679578 115.473317 -0.000000 -0.000000 1.000000 1.000000 1.000000
150 1 233.577204 50.238765 233.577204 50.238765 -0.000000 -0.000000 1.000000 1.000000 1.000000
151 1 226.913629 245.733495 226.913629 245.733495 0.000000 -0.000000 1.000000 1.000000 1.000000
152 1 68.208423 107.365161 68.208423 107.365161 0.000000 0.000000 1.000000 1.000000 1.000000
153 1 131.147049 164.864926 131.147049 164.864926 -0.000000 0.000000 1.000000 1.000000 1.000000
154 1 213.459356 261.942435 213.459356 261.942435 0.000000 -0.000000 1.000000 1.000000 1.000000
155 1 23.656861 196.408675 23.656861 196.408675 0.000000 0.000000 1.000000 1.000000 1.000000
156 1 164.490771 120.556979 164.490771 120.556979 0.000000 -0.000000 1.000000 1.000000 1.000000
157 1 116.222735 38.075903 116.222735 38.075903 -0.000000 0.000000 1.000000 1.000000 1.000000
158 1 193.061423 272.672700 193.061423 272.672700 -0.000000 -0.000000 1.000000 1.000000 1.000000
159 1 292.450827 62.509713 292.450827 62.509713 0.000000 0.000000 1.000000 1.000000 1.000000
160 1 88.520849 66.754538 88.520849 66.754538 0.000000 -0.000000 1.000000 1.000000 1.000000
161 1 149.794508 214.647793 149.794508 214.647793 0.000000 -0.000000 1.000000 1.000000 1.000000
162 1 175.835794 251.444627 175.835794 251.444627 0.000000 0.000000 1.000000 1.000000 1.000000
163 1 187.618542 43.303782 187.618542 43.303782 -0.000000 -0.000000 1.000000 1.000000 1.000000
164 1 117.404884 115.284289 117.404884 115.284289 -0.000000 -0.000000 1.000000 1.000000 1.000000
165 1 182.118543 109.972548 182.118543 109.972548 0.000000 0.000000 1.000000 1.000000 1.000000
166 1 257.397422 188.417361 257.397422 188.417361 -0.000000 0.000000 1.000000 1.000000 1.000000
167 1 66.468502 181.919235 66.468502 181.919235 -0.000000 0.000000 1.000000 1.000000 1.000000
168 1 107.865438 227.865769 107.865438 227.865769 -0.000000 -0.000000 1.000000 1.000000 1.000000
169 1 197.598472 144.414490 197.598472 144.414490 -0.000000 0.000000 1.000000 1.000000 1.000000
170 1 237.363124 289.558931 237.363124 -3.152215 -0.000000 0.000000 1.000000 1.000000 1.000000
171 1 261.116734 142.749973 261.116734 142.749973 -0.000001 -0.000001 1.000000 1.000000 1.000000
172 1 239.104137 192.166784 239.104137 192.166784 -0.000000 0.000000 1.000000 1.000000 1.000000
173 1 265.899069 139.036370 265.899069 139.036370 -0.000000 -0.000000 1.000000 1.000000 1.000000
174 1 128.723997 113.862899 128.723997 113.862899 -0.000000 -0.000000 1.000000 1.000000 1.000000
175 1 176.800090 177.820470 176.800090 177.820470 -0.000000 0.000000 1.000000 1.000000 1.000000
176 1 41.048486 233.482090 41.048486 233.482090 -0.000000 -0.000000 1.000000 1.000000 1.000000
177 1 11.742509 132.801831 11.742509 132.801831 -0.000000 -0.000000 1.000000 1.000000 1.000000
178 1 83.049069 19.971765 83.049069 19.971765 0.000000 -0.000000 1.000000 1.000000 1.000000
179 1 185.372412 19.838141 185.372412 19.838141 -0.000000 -0.000000 1.000000 1.000000 1.000000
180 1 195.979484 98.018603 195.979484 98.018603 -0.000000 -0.000000 1.000000 1.000000 1.000000
181 1 34.290756 50.776224 34.290756 50.776224 -0.000000 0.000000 1.000000 1.000000 1.000000
182 1 227.890297 66.940096 227.890297 66.940096 -0.000000 -0.000000 1.000000 1.000000 1.000000
183 1 49.589813 267.030194 49.589813 267.030194 0.000000 -0.000000 1.000000 1.000000 1.000000
184 1 82.978440 86.874394 82.978440 86.874394 -0.000000 -0.000000 1.000000 1.000000 1.000000
185 1 57.189105 24.020552 57.189105 24.020552 -0.000000 0.000000 1.000000 1.000000 1.000000
186 1 226.660676 3.185913 226.660676 3.185913 0.000000 -0.000000 1.000000 1.000000 1.000000
187 1 21.925250 157.821253 21.925250 157.821253 -0.000000 -0.000000 1.000000 1.000000 1.000000
188 1 245.597416 71.218463 245.597416 71.218463 -0.000000 -0.000000 1.000000 1.000000 1.000000
189 1 217.651051 239.137007 217.651051 239.137007 0.000000 -0.000000 1.000000 1.000000 1.000000
190 1 61.898094 269.118136 61.898094 269.118136 -0.000000 0.000000 1.000000 1.000000 1.000000
191 1 177.912509 158.688548 177.912509 158.688548 0.000000 0.000000 1.000000 1.000000 1.000000
192 1 93.286537 39.014352 93.286537 39.014352 0.000000 -0.000000 1.000000 1.000000 1.000000
193 1 162.969509 159.666263 162.969509 159.666263 -0.000000 -0.000000 1.000000 1.000000 1.000000
194 1 39.496874 259.804852 39.496874 259.804852 -0.000000 -0.000000 1.000000 1.000000 1.000000
195 1 122.831063 130.057559 122.831063 130.057559 -0.000000 -0.000000 1.000000 1.000000 1.000000
196 1 170.498996 256.655502 170.498996 256.655502 -0.000000 0.000000 1.000000 1.000000 1.000000
197 1 48.612949 183.344178 48.612949 183.344178 0.000000 -0.000000 1.000000 1.000000 1.000000
198 1 283.419500 179.910316 283.419500 179.910316 -0.000000 0.000000 1.000000 1.000000 1.000000
199 1 71.560906 218.095008 71.560906 218.095008 0.000001 -0.000000 1.000000 1.000000 1.000000
200 1 254.588941 53.262469 254.588941 53.262469 0.000000 -0.000000 1.000000 1.000000 1.000000
201 1 115.787699 117.140598 115.787699 117.140598 -0.000000 -0.000000 1.000000 1.000000 1.000000
202 1 41.753082 208.385107 41.753082 208.385107 0.000000 -0.000000 1.000000 1.000000 1.000000
203 1 178.857902 283.723668 178.857902 283.723668 0.000000 0.000000 1.000000 1.000000 1.000000
204 1 144.615974 218.235136 144.615974 218.235136 0.000000 0.000000 1.000000 1.000000 1.000000
205 1 206.853517 3.479010 206.853517 3.479010 0.000000 -0.000000 1.000000 1.000000 1.000000
206 1 20.618543 237.444454 20.618543 237.444454 0.000000 -0.000000 1.000000 1.000000 1.000000
207 1 138.763218 23.627204 138.763218 23.627204 -0.000000 0.000000 1.000000 1.000000 1.000000
208 1 226.689217 119.264889 226.689217 119.264889 0.000000 0.000000 1.000000 1.000000 1.000000
209 1 196.326674 101.579328 196.326674 101.579328 0.000000 -0.000000 1.000000 1.000000 1.000000
210 1 68.290474 135.610141 68.290474 135.610141 0.000000 0.000000 1.000000 1.000000 1.000000
211 1 263.243074 121.944550 263.243074 121.944550 -0.000000 0.000000 1.000000 1.000000 1.000000
212 1 278.824187 179.652570 278.824187 179.652570 0.000000 0.000000 1.000000 1.000000 1.000000
213 1 266.894886 153.766401 266.894886 153.766401 0.000000 0.000000 1.000000 1.000000 1.000000
214 1 1.853205 140.394855 294.564351 140.394855 0.000000 0.000000 1.000000 1.000000 1.000000
215 1 291.051981 93.294457 291.051981 93.294457 0.000000 -0.000000 1.000000 1.000000 1.000000
216 1 76.914121 28.385091 76.914121 28.385091 -0.000000 -0.000000 1.000000 1.000000 1.000000
217 1 101.515013 198.056488 101.515013 198.056488 0.000000 -0.000000 1.000000 1.000000 1.000000
218 1 258.097874 167.806478 258.097874 167.806478 -0.000000 0.000000 1.000000 1.000000 1.000000
219 1 39.241858 162.984959 39.241858 162.984959 0.000000 -0.000000 1.000000 1.000000 1.000000
220 1 230.826567 165.038368 230.826567 165.038368 0.000000 0.000000 1.000000 1.000000 1.000000
221 1 271.504631 37.409119 271.504631 37.409119 0.000000 -0.000000 1.000000 1.000000 1.000000
222 1 143.116681 5.425311 143.116681 298.136457 0.000000 0.000000 1.000000 1.000000 1.000000
223 1 95.735532 170.638581 95.735532 170.638581 -0.000000 0.000000 1.000000 1.000000 1.000000
224 1 64.655822 116.996767 64.655822 116.996767 0.000000 -0.000000 1.000000 1.000000 1.000000
225 1 263.836078 15.964962 263.836078 15.964962 0.000000 0.000000 1.000000 1.000000 1.000000
226 1 274.705074 286.777687 274.705074 286.777687 -0.000000 -0.000000 1.000000 1.000000 1.000000
227 1 135.998814 98.446464 135.998814 98.446464 0.000000 0.000000 1.000000 1.000000 1.000000
228 1 166.668041 111.482758 166.668041 111.482758 -0.000000 0.000000 1.000000 1.000000 1.000000
229 1 109.964113 173.707562 109.964113 173.707562 -0.000000 0.000000 1.000000 1.000000 1.000000
230 1 255.977235 76.221961 255.977235 76.221961 0.000000 -0.000000 1.000000 1.000000 1.000000
231 1 92.638241 45.511902 92.638241 45.511902 0.000000 0.000000 1.000000 1.000000 1.000000
232 1 242.101632 267.341127 242.101632 267.341127 -0.000000 -0.000000 1.000000 1.000000 1.000000
233 1 207.868062 46.551162 207.868062 46.551162 -0.000000 -0.000000 1.000000 1.000000 1.000000
234 1 5.046458 49.534545 5.046458 49.534545 0.000000 -0.000000 1.000000 1.000000 1.000000
235 1 69.209918 280.682184 69.209918 280.682184 -0.000000 0.000000 1.000000 1.000000 1.000000
236 1 131.364825 99.134023 131.364825 99.134023 -0.000000 -0.000000 1.000000 1.000000 1.000000
237 1 85.762772 141.424449 85.762772 141.424449 -0.000000 0.000000 1.000000 1.000000 1.000000
238 1 124.236725 94.017813 124.236725 94.017813 -0.000000 0.000000 1.000000 1.000000 1.000000
239 1 58.766247 245.441298 58.766247 245.441298 0.000000 0.000000 1.000000 1.000000 1.000000
240 1 268.727533 61.061801 268.727533 61.061801 -0.000000 -0.000000 1.000000 1.000000 1.000000
241 1 154.835780 270.171990 154.835780 270.171990 -0.000000 -0.000000 1.000000 1.000000 1.000000
242 1 119.239846 63.809515 119.239846 63.809515 -0.000000 0.000000 1.000000 1.000000 1.000000
243 1 41.515945 59.611109 41.515945 59.611109 -0.000000 -0.000000 1.000000 1.000000 1.000000
244 1 194.691109 254.444117 194.691109 254.444117 0.000000 -0.000000 1.000000 1.000000 1.000000
245 1 170.579242 163.331147 170.579242 163.331147 0.000000 0.000000 1.000000 1.000000 1.000000
246 1 64.109522 92.106259 64.109522 92.106259 0.000000 -0.000000 1.000000 1.000000 1.000000
247 1 96.414692 19.552871 96.414692 19.552871 -0.000000 0.000000 1.000000 1.000000 1.000000
248 1 7.938320 63.715672 7.938320 63.715672 -0.000000 0.000000 1.000000 1.000000 1.000000
249 1 283.681788 51.755976 283.681788 51.755976 -0.000000 0.000000 1.000000 1.000000 1.000000
250 1 218.939467 270.634488 218.939467 270.634488 0.000000 0.000000 1.000000 1.000000 1.000000
251 1 193.573149 147.511195 193.573149 147.511195 0.000000 -0.000000 1.000000 1.000000 1.000000
252 1 204.071792 273.305953 204.071792 273.305953 0.000000 -0.000000 1.000000 1.000000 1.000000
253 1 20.962358 31.718851 20.962358 31.718851 -0.000000 -0.000000 1.000000 1.000000 1.000000
254 1 284.922051 235.448267 284.922051 235.448267 -0.000000 0.000000 1.000000 1.000000 1.000000
255 1 237.667295 154.189135 237.667295 154.189135 -0.000000 -0.000000 1.000000 1.000000 1.000000
256 1 241.852521 269.975129 241.852521 269.975129 0.000000 -0.000000 1.000000 1.000000 1.000000
257 1 212.241057 189.601720 212.241057 189.601720 0.000000 -0.000000 1.000000 1.000000 1.000000
258 1 184.477720 186.299909 184.477720 186.299909 0.000000 -0.000000 1.000000 1.000000 1.000000
259 1 98.452672 232.271733 98.452672 232.271733 0.000000 0.000000 1.000000 1.000000 1.000000
260 1 272.878045 131.798794 272.878045 131.798794 0.000000 0.000000 1.000000 1.000000 1.000000
261 1 89.343046 53.511227 89.343046 53.511227 0.000000 -0.000000 1.000000 1.000000 1.000000
262 1 181.298191 216.145903 181.298191 216.145903 -0.000000 0.000000 1.000000 1.000000 1.000000
263 1 43.770716 138.210265 43.770716 138.210265 0.000000 0.000000 1.000000 1.000000 1.000000
264 1 86.043033 59.933961 86.043033 59.933961 -0.000000 -0.000000 1.000000 1.000000 1.000000
265 1 278.886789 262.396364 278.886789 262.396364 -0.000000 0.000000 1.000000 1.000000 1.000000
266 1 230.851460 96.139743 230.851460 96.139743 -0.000000 -0.000000 1.000000 1.000000 1.000000
267 1 39.148969 71.330985 39.148969 71.330985 0.000000 0.000000 1.000000 1.000000 1.000000
268 1 242.223164 82.258810 242.223164 82.258810 0.000000 0.000000 1.000000 1.000000 1.000000
269 1 255.209502 27.075759 255.209502 27.075759 0.000000 -0.000000 1.000000 1.000000 1.000000
270 1 288.728568 13.401290 288.728568 13.401290 -0.000000 -0.000000 1.000000 1.000000 1.000000
271 1 260.427994 34.624332 260.427994 34.624332 0.000000 0.000000 1.000000 1.000000 1.000000
272 1 208.994074 124.132883 208.994074 124.132883 -0.000000 -0.000000 1.000000 1.000000 1.000000
273 1 284.272533 289.575716 284.272533 -3.135430 0.000000 -0.000000 1.000000 1.000000 1.000000
274 1 141.905987 207.255528 141.905987 207.255528 -0.000000 -0.000000 1.000000 1.000000 1.000000
275 1 191.250881 11.197420 191.250881 11.197420 -0.000000 -0.000000 1.000000 1.000000 1.000000
276 1 249.979202 232.450690 249.979202 232.450690 -0.000000 -0.000000 1.000000 1.000000 1.000000
277 1 4.759174 81.080967 4.759174 81.080967 0.000000 0.000000 1.000000 1.000000 1.000000
278 1 69.082811 182.029524 69.082811 182.029524 0.000000 0.000000 1.000000 1.000000 1.000000
279 1 216.438779 255.416818 216.438779 255.416818 0.000000 0.000000 1.000000 1.000000 1.000000
280 1 51.967076 43.067580 51.967076 43.067580 0.000000 0.000000 1.000000 1.000000 1.000000
281 1 138.820554 182.124911 138.820554 182.124911 0.000000 -0.000000 1.000000 1.000000 1.000000
282 1 33.043258 41.421471 33.043258 41.421471 -0.000000 0.000000 1.000000 1.000000 1.000000
283 1 5.571191 247.937548 5.571191 247.937548 0.000000 0.000000 1.000000 1.000000 1.000000
284 1 258.187622 123.993690 258.187622 123.993690 -0.000000 -0.000000 1.000000 1.000000 1.000000
285 1 155.188409 281.648209 155.188409 281.648209 -0.000000 -0.000000 1.000000 1.000000 1.000000
286 1 140.195756 154.895137 140.195756 154.895137 0.000000 0.000000 1.000000 1.000000 1.000000
287 1 170.989733 193.171383 170.989733 193.171383 0.000000 0.000000 1.000000 1.000000 1.000000
288 1 79.922155 9.327284 79.922155 9.327284 -0.000000 0.000000 1.000000 1.000000 1.000000
289 1 130.550875 261.249245 130.550875 261.249245 -0.000000 0.000000 1.000000 1.000000 1.000000
290 1 54.888137 214.218831 54.888137 214.218831 0.000000 0.000000 1.000000 1.000000 1.000000
291 1 241.396482 3.399336 241.396482 296.110482 -0.000000 -0.000000 1.000000 1.000000 1.000000
292 1 120.898470 120.611700 120.898470 120.611700 0.000000 0.000000 1.000000 1.000000 1.000000
293 1 86.250873 284.821887 86.250873 284.821887 0.000000 0.000000 1.000000 1.000000 1.000000
294 1 182.009477 130.168693 182.009477 130.168693 0.000000 0.000000 1.000000 1.000000 1.000000
295 1 155.537252 193.289799 155.537252 193.289799 0.000000 -0.000000 1.000000 1.000000 1.000000
296 1 285.675890 237.336625 285.675890 237.336625 -0.000000 -0.000000 1.000000 1.000000 1.000000
297 1 191.315967 71.483321 191.315967 71.483321 -0.000000 0.000000 1.000000 1.000000 1.000000
298 1 22.840104 221.313572 22.840104 221.313572 -0.000000 -0.000000 1.000000 1.000000 1.000000
299 1 94.536382 232.489226 94.536382 232.489226 -0.000000 0.000000 1.000000 1.000000 1.000000
300 1 156.100510 261.324502 156.100510 261.324502 -0.000000 0.000000 1.000000 1.000000 1.000000
301 1 75.683003 155.648118 75.683003 155.648118 0.000000 -0.000000 1.000000 1.000000 1.000000
302 1 129.641356 287.476468 129.641356 287.476468 -0.000000 -0.000000 1.000000 1.000000 1.000000
303 1 121.403813 37.380974 121.403813 37.380974 0.000000 0.000000 1.000000 1.000000 1.000000
304 1 273.320547 35.705466 273.320547 35.705466 0.000000 0.000000 1.000000 1.000000 1.000000
305 1 90.871001 260.268881 90.871001 260.268881 -0.000000 -0.000000 1.000000 1.000000 1.000000
306 1 165.353952 125.088547 165.353952 125.088547 0.000000 0.000000 1.000000 1.000000 1.000000
307 1 273.813680 266.776992 273.813680 266.776992 0.000000 -0.000000 1.000000 1.000000 1.000000
308 1 227.296127 275.734059 227.296127 275.734059 -0.000000 0.000000 1.000000 1.000000 1.000000
309 1 287.704301 24.839529 -5.006845 24.839529 0.000000 0.000000 1.000000 1.000000 1.000000
310 1 164.516838 53.950787 164.516838 53.950787 0.000000 0.000000 1.000000 1.000000 1.000000
311 1 231.128079 2.249004 231.128079 294.960150 -0.000000 0.000000 1.000000 1.000000 1.000000
312 1 25.435549 182.567143 25.435549 182.567143 -0.000000 0.000000 1.000000 1.000000 1.000000
313 1 238.149521 241.752127 238.149521 241.752127 -0.000000 -0.000000 1.000000 1.000000 1.000000
314 1 70.646978 48.561889 70.646978 48.561889 0.000000 -0.000000 1.000000 1.000000 1.000000
315 1 84.751968 21.107169 84.751968 21.107169 -0.000000 0.000000 1.000000 1.000000 1.000000