ITEM: TIMESTEP
1700.000000
ITEM: NUMBER OF ATOMS
5000
ITEM: BOX BOUNDS xy xz yz
0 314.222492 0
0 314.222492 0
0 2 0
ITEM: ATOMS id type x y xu yu vx vy radius m z
0 1 10.156145 23.480408 324.378637 23.480408 -0.000000 -0.000000 1.000000 1.000000 1.000000
1 1 123.772976 308.469317 123.772976 -5.753175 -0.000000 -0.000000 1.000000 1.000000 1.000000
2 1 70.103074 136.599980 70.103074 136.599980 -0.000000 0.000000 1.000000 1.000000 1.000000
3 1 77.935882 185.480114 77.935882 185.480114 0.000000 0.000000 1.000000 1.000000 1.000000
4 1 293.307585 67.449842 293.307585 67.449842 0.000000 0.000000 1.000000 1.000000 1.000000
5 1 259.640874 292.236849 259.640874 292.236849 0.000000 -0.000000 1.000000 1.000000 1.000000
6 1 124.725228 35.578461 124.725228 35.578461 0.000000 -0.000000 1.000000 1.000000 1.000000
7 1 265.778831 69.856545 265.778831 69.856545 -0.000000 -0.000000 1.000000 1.000000 1.000000
8 1 20.535323 224.344092 20.535323 224.344092 -0.000000 -0.000000 1.000000 1.000000 1.000000
9 1 259.283847 248.057864 259.283847 248.057864 -0.000000 -0.000000 1.000000 1.000000 1.000000
10 1 134.800313 125.823358 134.800313 125.823358 -0.000000 -0.000000 1.000000 1.000000 1.000000
11 1 115.502502 197.596665 115.502502 197.596665 0.000000 0.000000 1.000000 1.000000 1.000000
12 1 208.001257 10.595280 208.001257 10.595280 0.000000 -0.000000 1.000000 1.000000 1.000000
13 1 306.032646 287.353609 306.032646 287.353609 -0.000000 -0.000000 1.000000 1.000000 1.000000
14 1 6.223261 219.348874 320.445753 219.348874 -0.000000 0.000000 1.000000 1.000000 1.000000
15 1 217.402252 216.950346 217.402252 216.950346 -0.000000 0.000000 1.000000 1.000000 1.000000
16 1 196.142325 206.764663 196.142325 206.764663 -0.000000 -0.000000 1.000000 1.000000 1.000000
17 1 26.433683 99.521536 26.433683 99.521536 -0.000000 0.000000 1.000000 1.000000 1.000000
18 1 229.605569 76.965207 229.605569 76.965207 -0.000000 -0.000000 1.000000 1.000000 1.000000
19 1 189.857303 218.704252 189.857303 218.704252 0.000000 -0.000000 1.000000 1.000000 1.000000
20 1 216.915500 229.782628 216.915500 229.782628 0.000000 -0.000000 1.000000 1.000000 1.000000
21 1 239.671952 8.138433 239.671952 322.360925 -0.000000 0.000000 1.000000 1.000000 1.000000
22 1 95.051805 83.722912 95.051805 83.722912 -0.000000 -0.000000 1.000000 1.000000 1.000000
23 1 134.216298 9.918086 134.216298 9.918086 0.000000 0.000000 1.000000 1.000000 1.000000
24 1 312.610407 54.377856 312.610407 54.377856 -0.000000 -0.000000 1.000000 1.000000 1.000000
25 1 115.018729 54.905584 115.018729 54.905584 0.000000 0.000000 1.000000 1.000000 1.000000
26 1 93.498687 174.925277 93.498687 174.925277 -0.000000 -0.000000 1.000000 1.000000 1.000000
27 1 128.902528 246.653967 128.902528 246.653967 -0.000000 0.000000 1.000000 1.000000 1.000000
28 1 281.376330 108.180702 281.376330 108.180702 0.000000 0.000000 1.000000 1.000000 1.000000
29 1 90.148825 176.886944 90.148825 176.886944 0.000000 -0.000000 1.000000 1.000000 1.000000
30 1 176.234003 0.694737 176.234003 0.694737 -0.000000 0.000000 1.000000 1.000000 1.000000
31 1 40.734809 69.624523 40.734809 69.624523 -0.000000 0.000000 1.000000 1.000000 1.000000
32 1 250.731695 161.914732 250.731695 161.914732 0.000000 -0.000000 1.000000 1.000000 1.000000
33 1 269.055278 224.678072 269.055278 224.678072 0.000000 -0.000000 1.000000 1.000000 1.000000
34 1 189.159956 282.797349 189.159956 282.797349 0.000000 0.000000 1.000000 1.000000 1.000000
35 1 86.242512 198.923806 86.242512 198.923806 -0.000000 -0.000000 1.000000 1.000000 1.000000
36 1 231.795440 222.320461 231.795440 222.320461 0.000000 -0.000000 1.000000 1.000000 1.000000
37 1 221.851036 189.652412 221.851036 189.652412 -0.000001 0.000000 1.000000 1.000000 1.000000
38 1 142.372373 36.109810 142.372373 36.109810 0.000000 0.000000 1.000000 1.000000 1.000000
39 1 283.044122 312.190279 283.044122 312.190279 0.000000 -0.000000 1.000000 1.000000 1.000000
40 1 88.162720 121.310916 88.162720 121.310916 -0.000000 0.000000 1.000000 1.000000 1.000000
41 1 135.489138 149.287480 135.489138 149.287480 0.000000 0.000000 1.000000 1.000000 1.000000
42 1 312.869801 16.882502 -1.352691 16.882502 -0.000000 -0.000000 1.000000 1.000000 1.000000
43 1 7.115857 250.474277 7.115857 250.474277 0.000000 0.000000 1.000000 1.000000 1.000000
44 1 34.944892 195.434776 34.944892 195.434776 -0.000000 0.000000 1.000000 1.000000 1.000000
45 1 75.713313 61.382925 75.713313 61.382925 -0.000000 0.000000 1.000000 1.000000 1.000000
46 1 119.728817 251.221270 119.728817 251.221270 0.000000 0.000000 1.000000 1.000000 1.000000
47 1 66.805345 58.753239 66.805345 58.753239 0.000000 -0.000000 1.000000 1.000000 1.000000
48 1 238.927322 77.180514 238.927322 77.180514 0.000000 -0.000000 1.000000 1.000000 1.000000
49 1 2.335516 10.289185 316.558008 324.511677 -0.000000 0.000000 1.000000 1.000000 1.000000
50 1 153.045027 198.174250 153.045027 198.174250 -0.000000 0.000000 1.000000 1.000000 1.000000
51 1 263.931533 299.054144 263.931533 299.054144 0.000000 -0.000000 1.000000 1.000000 1.000000
52 1 136.311396 53.836262 136.311396 53.836262 0.000000 0.000000 1.000000 1.000000 1.000000
53 1 239.670912 294.542699 239.670912 294.542699 0.000000 -0.000000 1.000000 1.000000 1.000000
54 1 196.911078 197.713993 196.911078 197.713993 0.000000 0.000000 1.000000 1.000000 1.000000
55 1 230.721842 280.776849 230.721842 280.776849 -0.000000 -0.000000 1.000000 1.000000 1.000000
56 1 141.691930 284.613276 141.691930 284.613276 -0.000000 0.000000 1.000000 1.000000 1.000000
57 1 270.718730 57.528548 270.718730 57.528548 0.000000 -0.000000 1.000000 1.000000 1.000000
58 1 217.328848 192.336565 217.328848 192.336565 -0.000000 -0.000000 1.000000 1.000000 1.000000
59 1 205.182441 257.928808 205.182441 257.928808 0.000000 0.000000 1.000000 1.000000 1.000000
60 1 139.900252 175.832364 139.900252 175.832364 0.000000 -0.000000 1.000000 1.000000 1.000000
61 1 262.690063 34.310394 262.690063 34.310394 0.000000 0.000000 1.000000 1.000000 1.000000
62 1 157.900420 179.171144 157.900420 179.171144 -0.000000 0.000000 1.000000 1.000000 1.000000
63 1 247.401448 140.777010 247.401448 140.777010 -0.000000 0.000000 1.000000 1.000000 1.000000
64 1 136.212005 185.780801 136.212005 185.780801 0.000000 0.000000 1.000000 1.000000 1.000000
65 1 205.717944 251.498667 205.717944 251.498667 0.000000 -0.000000 1.000000 1.000000 1.000000
66 1 38.463948 70.165985 38.463948 70.165985 -0.000000 0.000000 1.000000 1.000000 1.000000
67 1 18.778030 257.069828 18.778030 257.069828 -0.000000 0.000000 1.000000 1.000000 1.000000
68 1 63.224826 32.979703 63.224826 32.979703 -0.000000 -0.000000 1.000000 1.000000 1.000000
69 1 24.556244 293.196156 24.556244 -21.026336 0.000000 -0.000000 1.000000 1.000000 1.000000
70 1 177.362110 66.379590 177.362110 66.379590 0.000000 -0.000000 1.000000 1.000000 1.000000
71 1 33.016054 13.715482 33.016054 13.715482 0.000000 -0.000000 1.000000 1.000000 1.000000
72 1 250.220274 235.668555 250.220274 235.668555 0.000000 0.000000 1.000000 1.000000 1.000000
73 1 54.603463 48.321943 54.603463 48.321943 -0.000000 -0.000000 1.000000 1.000000 1.000000
74 1 193.412084 210.189727 193.412084 210.189727 -0.000000 0.000000 1.000000 1.000000 1.000000
75 1 114.127885 137.417157 114.127885 137.417157 -0.000000 0.000000 1.000000 1.000000 1.000000
76 1 228.867914 204.983859 228.867914 204.983859 0.000000 -0.000000 1.000000 1.000000 1.000000
77 1 182.981360 53.514790 182.981360 53.514790 -0.000000 0.000000 1.000000 1.000000 1.000000
78 1 164.443751 300.402301 164.443751 300.402301 0.000000 0.000000 1.000000 1.000000 1.000000
79 1 199.656610 6.248475 199.656610 6.248475 -0.000000 -0.000000 1.000000 1.000000 1.000000
80 1 120.799974 273.022702 120.799974 273.022702 -0.000000 -0.000000 1.000000 1.000000 1.000000
81 1 306.229581 98.667917 306.229581 98.667917 -0.000000 -0.000000 1.000000 1.000000 1.000000
82 1 218.911252 307.522901 218.911252 307.522901 -0.000000 -0.000000 1.000000 1.000000 1.000000
83 1 182.979307 154.377827 182.979307 154.377827 -0.000000 0.000000 1.000000 1.000000 1.000000
84 1 115.499018 139.817356 115.499018 139.817356 0.000000 0.000000 1.000000 1.000000 1.000000
85 1 135.364515 34.359265 135.364515 34.359265 0.000000 0.000000 1.000000 1.000000 1.000000
86 1 185.873135 259.543779 185.873135 259.543779 -0.000000 0.000000 1.000000 1.000000 1.000000
87 1 28.937860 167.183591 28.937860 167.183591 0.000000 -0.000000 1.000000 1.000000 1.000000
88 1 28.247777 272.955322 28.247777 272.955322 0.000000 -0.000000 1.000000 1.000000 1.000000
89 1 209.923781 54.212160 209.923781 54.212160 0.000000 -0.000000 1.000000 1.000000 1.000000
90 1 91.781442 183.478573 91.781442 183.478573 -0.000000 0.000000 1.000000 1.000000 1.000000
91 1 271.407801 262.305931 271.407801 262.305931 0.000000 0.000000 1.000000 1.000000 1.000000
92 1 277.558748 63.503230 277.558748 63.503230 0.000000 -0.000000 1.000000 1.000000 1.000000
93 1 85.401542 50.056572 85.401542 50.056572 0.000000 0.000000 1.000000 1.000000 1.000000
94 1 187.213901 200.429220 187.213901 200.429220 0.000000 0.000000 1.000000 1.000000 1.000000
95 1 154.431279 207.995541 154.431279 207.995541 -0.000000 0.000000 1.000000 1.000000 1.000000
96 1 255.545791 232.991249 255.545791 232.991249 -0.000000 -0.000000 1.000000 1.000000 1.000000
97 1 172.138852 134.996453 172.138852 134.996453 -0.000000 0.000000 1.000000 1.000000 1.000000
98 1 178.911957 78.963731 178.911957 78.963731 0.000000 -0.000000 1.000000 1.000000 1.000000
99 1 55.215631 159.184680 55.215631 159.184680 0.000000 -0.000000 1.000000 1.000000 1.000000
100 1 265.051257 235.396842 265.051257 235.396842 0.000000 -0.000000 1.000000 1.000000 1.000000
101 1 49.749191 44.253000 49.749191 44.253000 -0.000000 -0.000000 1.000000 1.000000 1.000000
102 1 74.289163 114.445581 74.289163 114.445581 -0.000000 -0.000000 1.000000 1.000000 1.000000
103 1 254.442474 150.348165 254.442474 150.348165 0.000000 -0.000000 1.000000 1.000000 1.000000
104 1 88.861578 230.960703 88.861578 230.960703 -0.000000 0.000000 1.000000 1.000000 1.000000
105 1 146.327498 170.966488 146.327498 170.966488 -0.000000 -0.000000 1.000000 1.000000 1.000000
106 1 170.544659 280.805485 170.544659 280.805485 -0.000000 0.000000 1.000000 1.000000 1.000000
107 1 142.910409 261.323351 142.910409 261.323351 -0.000000 0.000000 1.000000 1.000000 1.000000
108 1 35.363844 1.981956 35.363844 1.981956 0.000000 0.000000 1.000000 1.000000 1.000000
109 1 36.362610 31.719960 36.362610 31.719960 -0.000000 0.000000 1.000000 1.000000 1.000000
110 1 163.672784 55.225485 163.672784 55.225485 -0.000000 0.000000 1.000000 1.000000 1.000000
111 1 39.935735 59.278676 39.935735 59.278676 0.000000 -0.000000 1.000000 1.000000 1.000000
112 1 195.661327 61.225050 195.661327 61.225050 -0.000000 0.000000 1.000000 1.000000 1.000000
113 1 150.233387 207.175903 150.233387 207.175903 -0.000000 -0.000000 1.000000 1.000000 1.000000
114 1 215.042381 177.301424 215.042381 177.301424 -0.000000 -0.000000 1.000000 1.000000 1.000000
115 1 183.214198 237.778270 183.214198 237.778270 -0.000000 0.000000 1.000000 1.000000 1.000000
116 1 192.762900 221.792537 192.762900 221.792537 0.000000 -0.000000 1.000000 1.000000 1.000000
117 1 157.341080 72.743449 157.341080 72.743449 0.000000 -0.000000 1.000000 1.000000 1.000000
118 1 125.476266 3.298576 125.476266 3.298576 0.000000 -0.000000 1.000000 1.000000 1.000000
119 1 86.197482 274.966562 86.197482 274.966562 -0.000000 -0.000000 1.000000 1.000000 1.000000
120 1 284.190867 126.013906 284.190867 126.013906 0.000000 0.000000 1.000000 1.000000 1.000000
121 1 111.824332 249.692529 111.824332 249.692529 0.000000 0.000000 1.000000 1.000000 1.000000
122 1 92.480991 108.829040 92.480991 108.829040 -0.000000 0.000000 1.000000 1.000000 1.000000
123 1 127.752909 39.897443 127.752909 39.897443 0.000000 0.000000 1.000000 1.000000 1.000000
124 1 194.040471 246.648835 194.040471 246.648835 -0.000000 0.000000 1.000000 1.000000 1.000000
125 1 55.669819 272.668362 55.669819 272.668362 0.000000 0.000000 1.000000 1.000000 1.000000
126 1 110.925617 25.476829 110.925617 25.476829 -0.000000 -0.000000 1.000000 1.000000 1.000000
127 1 113.718632 233.227969 113.718632 233.227969 0.000000 -0.000000 1.000000 1.000000 1.000000
128 1 90.176537 112.266696 90.176537 112.266696 0.000000 0.000000 1.000000 1.000000 1.000000
129 1 172.950284 149.977635 172.950284 149.977635 -0.000000 -0.000000 1.000000 1.000000 1.000000
130 1 55.103748 283.003523 55.103748 283.003523 0.000000 -0.000000 1.000000 1.000000 1.000000
131 1 6.911576 160.021707 6.911576 160.021707 0.000000 -0.000000 1.000000 1.000000 1.000000
132 1 178.022364 76.300276 178.022364 76.300276 0.000000 -0.000000 1.000000 1.000000 1.000000
133 1 108.211059 140.349805 108.211059 140.349805 -0.000000 -0.000000 1.000000 1.000000 1.000000
134 1 249.308772 272.214906 249.308772 272.214906 -0.000000 -0.000000 1.000000 1.000000 1.000000
135 1 109.211650 91.462426 109.211650 91.462426 -0.000000 0.000000 1.000000 1.000000 1.000000
136 1 290.102616 230.000236 290.102616 230.000236 -0.000000 -0.000000 1.000000 1.000000 1.000000
137 1 56.842910 301.402405 56.842910 301.402405 -0.000000 -0.000000 1.000000 1.000000 1.000000
138 1 277.340453 226.433074 277.340453 226.433074 0.000000 0.000000 1.000000 1.000000 1.000000
139 1 228.640084 99.552285 228.640084 99.552285 0.000000 0.000000 1.000000 1.000000 1.000000
140 1 223.304560 306.220435 223.304560 306.220435 0.000000 -0.000000 1.000000 1.000000 1.000000
141 1 9.072842 256.949702 9.072842 256.949702 0.000000 -0.000000 1.000000 1.000000 1.000000
142 1 26.110898 157.883436 26.110898 157.883436 -0.000000 -0.000000 1.000000 1.000000 1.000000
143 1 286.158342 14.107059 286.158342 14.107059 -0.000000 0.000000 1.000000 1.000000 1.000000
144 1 177.947904 159.039275 177.947904 159.039275 -0.000000 0.000000 1.000000 1.000000 1.000000
145 1 92.613213 140.730642 92.613213 140.730642 -0.000000 -0.000000 1.000000 1.000000 1.000000
146 1 20.424694 31.057454 20.424694 31.057454 -0.000000 0.000000 1.000000 1.000000 1.000000
147 1 165.148689 244.960406 165.148689 244.960406 -0.000000 -0.000000 1.000000 1.000000 1.000000
148 1 178.315626 292.340067 178.315626 292.340067 -0.000000 -0.000000 1.000000 1.000000 1.000000
149 1 210.945553 228.338367 210.945553 228.338367 0.000000 -0.000000 1.000000 1.000000 1.000000
150 1 126.562859 209.742406 126.562859 209.742406 0.000000 0.000000 1.000000 1.000000 1.000000
151 1 257.818405 159.921958 257.818405 159.921958 -0.000000 0.000000 1.000000 1.000000 1.000000
152 1 228.165367 13.148552 228.165367 13.148552 -0.000000 -0.000000 1.000000 1.000000 1.000000
153 1 100.713174 233.712366 100.713174 233.712366 -0.000000 -0.000000 1.000000 1.000000 1.000000
154 1 201.281862 169.344959 201.281862 169.344959 0.000000 0.000000 1.000000 1.000000 1.000000
155 1 98.789094 111.549882 98.789094 111.549882 -0.000000 -0.000000 1.000000 1.000000 1.000000
156 1 28.524441 207.959542 28.524441 207.959542 0.000000 -0.000000 1.000000 1.000000 1.000000
157 1 100.262715 86.053061 100.262715 86.053061 -0.000000 -0.000000 1.000000 1.000000 1.000000
158 1 298.346947 237.873968 298.346947 237.873968 -0.000000 -0.000000 1.000000 1.000000 1.000000
159 1 217.110856 287.109726 217.110856 287.109726 0.000000 0.000000 1.000000 1.000000 1.000000
160 1 104.187976 129.531403 104.187976 129.531403 -0.000000 -0.000000 1.000000 1.000000 1.000000
161 1 7.526763 5.919999 7.526763 5.919999 0.000000 0.000000 1.000000 1.000000 1.000000
162 1 12.371825 237.998380 12.371825 237.998380 0.000000 0.000000 1.000000 1.000000 1.000000
163 1 70.564055 129.925397 70.564055 129.925397 -0.000000 -0.000000 1.000000 1.000000 1.000000
164 1 275.379664 73.763704 275.379664 73.763704 -0.000000 0.000000 1.000000 1.000000 1.000000
165 1 176.280895 144.570611 176.280895 144.570611 0.000000 0.000000 1.000000 1.000000 1.000000
166 1 218.324065 207.244651 218.324065 207.244651 0.000000 0.000000 1.000000 1.000000 1.000000
167 1 70.466137 15.001953 70.466137 15.001953 -0.000000 -0.000000 1.000000 1.000000 1.000000
168 1 216.255668 138.740963 216.255668 138.740963 -0.000000 0.000000 1.000000 1.000000 1.000000
169 1 4.413739 46.244787 4.413739 46.244787 0.000000 -0.000000 1.000000 1.000000 1.000000
170 1 36.040741 244.241594 36.040741 244.241594 -0.000000 -0.000000 1.000000 1.000000 1.000000
171 1 226.409477 184.385425 226.409477 184.385425 0.000000 -0.000000 1.000000 1.000000 1.000000
172 1 294.240735 300.240065 -19.981757 300.240065 -0.000000 0.000000 1.000000 1.000000 1.000000
173 1 177.089726 48.545470 177.089726 48.545470 0.000000 -0.000000 1.000000 1.000000 1.000000
174 1 288.719214 306.549316 288.719214 306.549316 0.000000 0.000000 1.000000 1.000000 1.000000
175 1 60.609940 116.177429 60.609940 116.177429 -0.000000 -0.000000 1.000000 1.000000 1.000000
176 1 129.676033 90.575980 129.676033 90.575980 0.000000 0.000000 1.000000 1.000000 1.000000
177 1 116.690841 237.686534 116.690841 237.686534 0.000000 0.000000 1.000000 1.000000 1.000000
178 1 17.474715 283.320456 17.474715 283.320456 0.000000 -0.000000 1.000000 1.000000 1.000000
179 1 169.509406 40.506853 169.509406 40.506853 -0.000000 0.000000 1.000000 1.000000 1.000000
180 1 310.861423 306.063219 310.861423 306.063219 0.000000 -0.000000 1.000000 1.000000 1.000000
181 1 261.029408 135.180451 261.029408 135.180451 -0.000000 -0.000000 1.000000 1.000000 1.000000
182 1 119.155153 54.093121 119.155153 54.093121 -0.000000 -0.000000 1.000000 1.000000 1.000000
183 1 181.221122 301.959999 181.221122 301.959999 -0.000000 0.000000 1.000000 1.000000 1.000000
184 1 66.867010 228.257388 66.867010 228.257388 -0.000000 -0.000000 1.000000 1.000000 1.000000
185 1 21.945994 73.112738 21.945994 73.112738 -0.000000 0.000000 1.000000 1.000000 1.000000
186 1 114.949105 248.385617 114.949105 248.385617 0.000000 0.000000 1.000000 1.000000 1.000000
187 1 83.814322 249.803707 83.814322 249.803707 -0.000000 0.000000 1.000000 1.000000 1.000000
188 1 143.614154 74.935324 143.614154 74.935324 -0.000000 0.000000 1.000000 1.000000 1.000000
189 1 287.934682 38.074698 287.934682 38.074698 0.000000 -0.000000 1.000000 1.000000 1.000000
190 1 230.134710 106.727501 230.134710 106.727501 0.000000 -0.000000 1.000000 1.000000 1.000000
191 1 162.521308 265.275811 162.521308 265.275811 -0.000000 -0.000000 1.000000 1.000000 1.000000
192 1 306.767011 145.726743 306.767011 145.726743 -0.000000 0.000000 1.000000 1.000000 1.000000
193 1 82.404063 193.731387 82.404063 193.731387 -0.000000 0.000000 1.000000 1.000000 1.000000
194 1 140.524008 35.027764 140.524008 35.027764 -0.000000 0.000000 1.000000 1.000000 1.000000
195 1 98.361519 169.022619 98.361519 169.022619 0.000000 -0.000000 1.000000 1.000000 1.000000
196 1 138.496476 71.007869 138.496476 71.007869 0.000000 -0.000000 1.000000 1.000000 1.000000
197 1 5.879646 98.073175 5.879646 98.073175 0.000000 0.000000 1.000000 1.000000 1.000000
198 1 158.330760 314.211828 158.330760 314.211828 -0.000000 0.000000 1.000000 1.000000 1.000000
199 1 280.030310 63.934658 280.030310 63.934658 -0.000000 0.000000 1.000000 1.000000 1.000000
200 1 157.076021 112.368223 157.076021 112.368223 0.000000 0.000000 1.000000 1.000000 1.000000
201 1 69.658909 0.503350 69.658909 314.725842 -0.000000 -0.000000 1.000000 1.000000 1.000000
202 1 49.805507 305.967251 49.805507 305.967251 0.000000 0.000000 1.000000 1.000000 1.000000
203 1 297.041484 48.407602 297.041484 48.407602 0.000000 -0.000000 1.000000 1.000000 1.000000
204 1 99.574604 187.643376 99.574604 187.643376 -0.000000 -0.000000 1.000000 1.000000 1.000000
205 1 8.184057 1.172076 8.184057 315.394568 0.000000 -0.000000 1.000000 1.000000 1.000000
206 1 242.079634 29.859978 242.079634 29.859978 -0.000000 0.000000 1.000000 1.000000 1.000000
207 1 33.140083 302.340499 33.140083 302.340499 -0.000000 -0.000000 1.000000 1.000000 1.000000
208 1 202.438604 7.360417 202.438604 7.360417 0.000000 0.000000 1.000000 1.000000 1.000000
209 1 110.313084 220.318478 110.313084 220.318478 0.000000 0.000000 1.000000 1.000000 1.000000
210 1 254.458883 195.841585 254.458883 195.841585 0.000000 0.000000 1.000000 1.000000 1.000000
211 1 290.189786 116.804799 290.189786 116.804799 -0.000000 0.000000 1.000000 1.000000 1.000000
212 1 46.986434 193.478895 46.986434 193.478895 -0.000000 -0.000000 1.000000 1.000000 1.000000
213 1 114.499279 279.177189 114.499279 279.177189 0.000000 0.000000 1.000000 1.000000 1.000000
214 1 241.514123 185.658275 241.514123 185.658275 0.000000 -0.000000 1.000000 1.000000 1.000000
215 1 93.300215 258.300231 93.300215 258.300231 0.000000 0.000000 1.000000 1.000000 1.000000
216 1 225.358624 213.938275 225.358624 213.938275 -0.000000 0.000000 1.000000 1.000000 1.000000
217 1 12.137182 16.374490 12.137182 16.374490 -0.000000 -0.000000 1.000000 1.000000 1.000000
218 1 133.857170 90.045334 133.857170 90.045334 0.000000 0.000000 1.000000 1.000000 1.000000
219 1 69.664358 302.869072 69.664358 302.869072 -0.000000 0.000000 1.000000 1.000000 1.000000
220 1 6.293414 95.923629 6.293414 95.923629 -0.000000 -0.000000 1.000000 1.000000 1.000000
221 1 45.023382 107.871176 45.023382 107.871176 0.000000 0.000000 1.000000 1.000000 1.000000
222 1 228.034713 264.779810 228.034713 264.779810 0.000000 0.000000 1.000000 1.000000 1.000000
223 1 263.801775 214.347348 263.801775 214.347348 -0.000000 0.000000 1.000000 1.000000 1.000000
224 1 217.170225 97.311815 217.170225 97.311815 0.000000 -0.000000 1.000000 1.000000 1.000000
225 1 41.087490 275.750448 41.087490 275.750448 0.000000 -0.000000 1.000000 1.000000 1.000000
226 1 255.614418 25.368077 255.614418 25.368077 0.000000 0.000000 1.000000 1.000000 1.000000
227 1 304.451976 218.610759 304.451976 218.610759 -0.000000 -0.000000 1.000000 1.000000 1.000000
228 1 289.071832 64.164232 289.071832 64.164232 0.000000 -0.000000 1.000000 1.000000 1.000000
229 1 32.661631 156.793706 32.661631 156.793706 0.000000 -0.000000 1.000000 1.000000 1.000000
230 1 72.620335 190.304872 72.620335 190.304872 0.000000 -0.000000 1.000000 1.000000 1.000000
231 1 178.667224 283.993841 178.667224 283.993841 -0.000000 -0.000000 1.000000 1.000000 1.000000
232 1 122.840831 300.242827 122.840831 300.242827 -0.000000 0.000000 1.000000 1.000000 1.000000
233 1 167.065745 131.424961 167.065745 131.424961 -0.000000 0.000000 1.000000 1.000000 1.000000
234 1 152.836266 204.943273 152.836266 204.943273 -0.000000 0.000000 1.000000 1.000000 1.000000
235 1 258.944932 302.210693 258.944932 -12.011799 -0.000000 0.000000 1.000000 1.000000 1.000000
236 1 20.158995 249.058086 20.158995 249.058086 -0.000000 0.000000 1.000000 1.000000 1.000000
237 1 80.197696 230.007226 80.197696 230.007226 0.000000 0.000000 1.000000 1.000000 1.000000
238 1 76.568122 189.006448 76.568122 189.006448 0.000000 0.000000 1.000000 1.000000 1.000000
239 1 237.221116 215.902714 237.221116 215.902714 -0.000000 0.000000 1.000000 1.000000 1.000000
240 1 195.822629 120.239258 195.822629 120.239258 0.000000 -0.000000 1.000000 1.000000 1.000000
241 1 138.639240 147.179574 138.639240 147.179574 0.000000 -0.000000 1.000000 1.000000 1.000000
242 1 80.821263 88.711559 80.821263 88.711559 0.000000 -0.000000 1.000000 1.000000 1.000000
243 1 304.009831 101.245668 304.009831 101.245668 0.000000 -0.000000 1.000000 1.000000 1.000000
244 1 248.447291 307.858121 248.447291 307.858121 -0.000000 -0.000000 1.000000 1.000000 1.000000
245 1 231.366415 306.903629 231.366415 -7.318863 0.000000 -0.000000 1.000000 1.000000 1.000000
246 1 36.192622 114.409890 36.192622 114.409890 0.000000 0.000000 1.000000 1.000000 1.000000
247 1 303.776879 132.010635 303.776879 132.010635 -0.000000 0.000000 1.000000 1.000000 1.000000
248 1 115.172795 106.917291 115.172795 106.917291 0.000000 -0.000000 1.000000 1.000000 1.000000
249 1 196.363095 16.040989 196.363095 16.040989 -0.000000 0.000000 1.000000 1.000000 1.000000
250 1 250.975155 61.090147 250.975155 61.090147 -0.000000 -0.000000 1.000000 1.000000 1.000000
251 1 191.226778 1.813770 191.226778 316.036262 0.000000 -0.000000 1.000000 1.000000 1.000000
252 1 88.174325 218.630007 88.174325 218.630007 -0.000000 0.000000 1.000000 1.000000 1.000000
253 1 304.762818 279.907087 -9.459674 279.907087 -0.000000 -0.000000 1.000000 1.000000 1.000000
254 1 30.938947 233.751634 30.938947 233.751634 -0.000000 0.000000 1.000000 1.000000 1.000000
255 1 284.228047 95.324706 284.228047 95.324706 0.000000 0.000000 1.000000 1.000000 1.000000
256 1 196.260419 237.394109 196.260419 237.394109 -0.000000 0.000000 1.000000 1.000000 1.000000
257 1 178.553329 58.163974 178.553329 58.163974 -0.000000 -0.000000 1.000000 1.000000 1.000000
258 1 112.262909 161.603132 112.262909 161.603132 0.000000 0.000000 1.000000 1.000000 1.000000
259 1 169.438444 264.192964 169.438444 264.192964 0.000000 -0.000000 1.000000 1.000000 1.000000
260 1 129.959944 6.097825 129.959944 6.097825 -0.000000 0.000000 1.000000 1.000000 1.000000
261 1 96.230045 159.382776 96.230045 159.382776 -0.000000 0.000000 1.000000 1.000000 1.000000
262 1 248.858777 104.897562 248.858777 104.897562 0.000000 -0.000000 1.000000 1.000000 1.000000
263 1 251.165221 310.037394 251.165221 -4.185098 0.000000 0.000000 1.000000 1.000000 1.000000
264 1 204.035948 125.287871 204.035948 125.287871 -0.000000 0.000000 1.000000 1.000000 1.000000
265 1 162.205274 128.272021 162.205274 128.272021 0.000000 -0.000000 1.000000 1.000000 1.000000
266 1 299.555502 49.287488 -14.666990 49.287488 -0.000000 0.000000 1.000000 1.000000 1.000000
267 1 2.156903 110.900604 2.156903 110.900604 -0.000000 0.000000 1.000000 1.000000 1.000000
268 1 180.571524 124.154284 180.571524 124.154284 -0.000000 0.000000 1.000000 1.000000 1.000000
269 1 3.558047 94.835640 317.780539 94.835640 -0.000000 0.000000 1.000000 1.000000 1.000000
270 1 95.334338 17.918861 95.334338 17.918861 -0.000000 0.000000 1.000000 1.000000 1.000000
271 1 134.224974 280.038300 134.224974 280.038300 -0.000000 -0.000000 1.000000 1.000000 1.000000
272 1 245.314813 308.302067 245.314813 308.302067 0.000000 0.000000 1.000000 1.000000 1.000000
273 1 160.945553 180.976105 160.945553 180.976105 -0.000000 -0.000000 1.000000 1.000000 1.000000
274 1 112.703638 21.031140 112.703638 21.031140 -0.000000 -0.000000 1.000000 1.000000 1.000000
275 1 308.711732 268.712398 -5.510760 268.712398 0.000000 -0.000000 1.000000 1.000000 1.000000
276 1 67.399412 106.067616 67.399412 106.067616 0.000000 0.000000 1.000000 1.000000 1.000000
277 1 54.685033 112.534981 54.685033 112.534981 -0.000000 0.000000 1.000000 1.000000 1.000000
278 1 32.313849 276.988129 32.313849 276.988129 -0.000000 -0.000000 1.000000 1.000000 1.000000
279 1 312.322206 133.634134 312.322206 133.634134 0.000000 -0.000000 1.000000 1.000000 1.000000
280 1 126.312591 241.217803 126.312591 241.217803 -0.000000 -0.000000 1.000000 1.000000 1.000000
281 1 190.994380 191.161010 190.994380 191.161010 -0.000000 -0.000000 1.000000 1.000000 1.000000
282 1 87.360681 119.239873 87.360681 119.239873 0.000000 -0.000000 1.000000 1.000000 1.000000
283 1 114.364441 265.434843 114.364441 265.434843 -0.000000 -0.000000 1.000000 1.000000 1.000000
284 1 13.347949 135.436863 13.347949 135.436863 0.000000 0.000000 1.000000 1.000000 1.000000
285 1 70.609560 288.561333 70.609560 288.561333 0.000000 -0.000000 1.000000 1.000000 1.000000
286 1 107.299249 257.705854 107.299249 257.705854 -0.000000 0.000000 1.000000 1.000000 1.000000
287 1 307.607905 56.714781 307.607905 56.714781 -0.000000 0.000000 1.000000 1.000000 1.000000
288 1 32.081645 47.042397 32.081645 47.042397 0.000000 0.000000 1.000000 1.000000 1.000000
289 1 189.925929 78.877966 189.925929 78.877966 -0.000000 -0.000000 1.000000 1.000000 1.000000
290 1 270.360099 193.337855 270.360099 193.337855 -0.000000 0.000000 1.000000 1.000000 1.000000
291 1 108.604276 96.253988 108.604276 96.253988 0.000000 -0.000000 1.000000 1.000000 1.000000
292 1 131.163536 93.376454 131.163536 93.376454 -0.000000 0.000000 1.000000 1.000000 1.000000
293 1 0.208116 55.748860 314.430608 55.748860 0.000000 0.000000 1.000000 1.000000 1.000000
294 1 173.678640 63.816005 173.678640 63.816005 -0.000000 -0.000000 1.000000 1.000000 1.000000
295 1 270.555246 256.197550 270.555246 256.197550 0.000000 0.000000 1.000000 1.000000 1.000000
296 1 168.887311 123.252979 168.887311 123.252979 0.000000 -0.000000 1.000000 1.000000 1.000000
297 1 213.445839 183.760615 213.445839 183.760615 -0.000000 0.000000 1.000000 1.000000 1.000000
298 1 65.512378 312.645238 65.512378 312.645238 -0.000000 -0.000000 1.000000 1.000000 1.000000
299 1 228.083877 0.408053 228.083877 314.630545 0.000000 0.000000 1.000000 1.000000 1.000000
300 1 34.518919 186.097731 34.518919 186.097731 -0.000000 0.000000 1.000000 1.000000 1.000000
301 1 114.912604 306.818485 114.912604 306.818485 0.000000 -0.000000 1.000000 1.000000 1.000000
302 1 19.216516 70.922670 19.216516 70.922670 -0.000000 -0.000000 1.000000 1.000000 1.000000
303 1 304.992986 112.327334 304.992986 112.327334 0.000000 -0.000000 1.000000 1.000000 1.000000
304 1 177.987302 279.665866 177.987302 279.665866 -0.000000 0.000000 1.000000 1.000000 1.000000
305 1 275.196300 214.937865 275.196300 214.937865 0.000000 0.000000 1.000000 1.000000 1.000000
306 1 161.206182 164.062621 161.206182 164.062621 -0.000000 -0.000000 1.000000 1.000000 1.000000
307 1 113.078252 222.947032 113.078252 222.947032 -0.000000 0.000000 1.000000 1.000000 1.000000
308 1 204.000233 227.632318 204.000233 227.632318 -0.000000 0.000000 1.000000 1.000000 1.000000
309 1 308.973434 86.156296 308.973434 86.156296 0.000000 -0.000000 1.000000 1.000000 1.000000
310 1 52.207021 255.236893 52.207021 255.236893 0.000000 -0.000000 1.000000 1.000000 1.000000
311 1 294.595393 56.016666 294.595393 56.016666 -0.000000 0.000000 1.000000 1.000000 1.000000
312 1 82.716331 263.666067 82.716331 263.666067 -0.000000 -0.000000 1.000000 1.000000 1.000000
313 1 1.044582 145.280141 1.044582 145.280141 0.000000 0.000000 1.000000 1.000000 1.000000
314 1 4.939086 137.400786 319.161578 137.400786 -0.000000 0.000000 1.000000 1.000000 1.000000
315 1 171.804611 260.554289 171.804611 260.554289 0.000000 -0.000000 1.000000 1.000000 1.000000