ITEM: TIMESTEP
2000.000000
ITEM: NUMBER OF ATOMS
5000
ITEM: BOX BOUNDS xy xz yz
0 279.193970 0
0 279.193970 0
0 2 0
ITEM: ATOMS id type x y xu yu vx vy radius m z
0 1 194.472186 112.705437 194.472186 112.705437 -0.000000 -0.000000 1.000000 1.000000 1.000000
1 1 43.468101 216.679602 43.468101 216.679602 0.000000 0.000000 1.000000 1.000000 1.000000
2 1 75.570314 244.899303 75.570314 244.899303 -0.000000 0.000000 1.000000 1.000000 1.000000
3 1 77.893556 268.772429 77.893556 268.772429 0.000000 0.000000 1.000000 1.000000 1.000000
4 1 207.525622 154.130632 207.525622 154.130632 0.000000 0.000000 1.000000 1.000000 1.000000
5 1 255.499812 254.422182 255.499812 254.422182 0.000000 -0.000000 1.000000 1.000000 1.000000
6 1 92.631110 99.244680 92.631110 99.244680 -0.000000 -0.000000 1.000000 1.000000 1.000000
7 1 184.457212 55.990537 184.457212 55.990537 0.000000 -0.000000 1.000000 1.000000 1.000000
8 1 127.265194 266.666921 127.265194 266.666921 -0.000000 0.000000 1.000000 1.000000 1.000000
9 1 84.476481 178.533935 84.476481 178.533935 -0.000000 0.000000 1.000000 1.000000 1.000000
10 1 121.889127 204.407659 121.889127 204.407659 0.000000 0.000000 1.000000 1.000000 1.000000
11 1 92.196674 159.083752 92.196674 159.083752 0.000000 -0.000000 1.000000 1.000000 1.000000
12 1 194.501883 130.246130 194.501883 130.246130 -0.000000 -0.000000 1.000000 1.000000 1.000000
13 1 223.996082 60.728210 223.996082 60.728210 -0.000000 -0.000000 1.000000 1.000000 1.000000
14 1 188.453645 164.689952 188.453645 164.689952 0.000000 -0.000000 1.000000 1.000000 1.000000
15 1 174.220716 222.276708 174.220716 222.276708 0.000000 0.000000 1.000000 1.000000 1.000000
16 1 216.219050 121.297137 216.219050 121.297137 0.000000 -0.000000 1.000000 1.000000 1.000000
17 1 108.683675 243.406666 108.683675 243.406666 0.000000 -0.000000 1.000000 1.000000 1.000000
18 1 95.023075 161.912320 95.023075 161.912320 0.000000 0.000000 1.000000 1.000000 1.000000
19 1 277.566243 212.586650 277.566243 212.586650 -0.000000 -0.000000 1.000000 1.000000 1.000000
20 1 87.008931 73.672495 87.008931 73.672495 0.000000 -0.000000 1.000000 1.000000 1.000000
21 1 240.676998 233.712618 240.676998 233.712618 -0.000000 0.000000 1.000000 1.000000 1.000000
22 1 80.405020 251.139244 80.405020 251.139244 0.000000 -0.000000 1.000000 1.000000 1.000000
23 1 113.721694 191.949209 113.721694 191.949209 0.000000 -0.000000 1.000000 1.000000 1.000000
24 1 179.557233 55.040607 179.557233 55.040607 -0.000000 0.000000 1.000000 1.000000 1.000000
25 1 54.168853 25.905376 54.168853 25.905376 -0.000000 0.000000 1.000000 1.000000 1.000000
26 1 125.213311 30.088816 125.213311 30.088816 0.000000 0.000000 1.000000 1.000000 1.000000
27 1 83.639336 220.984118 83.639336 220.984118 -0.000000 -0.000000 1.000000 1.000000 1.000000
28 1 249.778844 245.704553 249.778844 245.704553 -0.000000 0.000000 1.000000 1.000000 1.000000
29 1 276.838316 161.913177 276.838316 161.913177 -0.000000 0.000000 1.000000 1.000000 1.000000
30 1 14.625595 14.084448 14.625595 14.084448 0.000000 -0.000000 1.000000 1.000000 1.000000
31 1 97.679647 38.150724 97.679647 38.150724 0.000000 -0.000000 1.000000 1.000000 1.000000
32 1 221.073328 59.718435 221.073328 59.718435 0.000000 0.000000 1.000000 1.000000 1.000000
33 1 236.380398 90.573722 236.380398 90.573722 -0.000000 0.000000 1.000000 1.000000 1.000000
34 1 144.002817 191.346396 144.002817 191.346396 -0.000000 0.000000 1.000000 1.000000 1.000000
35 1 237.558841 11.972090 237.558841 291.166060 -0.000000 -0.000000 1.000000 1.000000 1.000000
36 1 4.098009 1.449894 4.098009 280.643864 0.000000 0.000000 1.000000 1.000000 1.000000
37 1 32.141212 178.468219 32.141212 178.468219 -0.000000 0.000000 1.000000 1.000000 1.000000
38 1 87.983912 153.440237 87.983912 153.440237 -0.000000 0.000000 1.000000 1.000000 1.000000
39 1 23.994848 116.758871 23.994848 116.758871 -0.000000 -0.000000 1.000000 1.000000 1.000000
40 1 14.698230 170.140284 14.698230 170.140284 -0.000000 0.000000 1.000000 1.000000 1.000000
41 1 167.628828 21.859872 167.628828 301.053842 0.000000 0.000000 1.000000 1.000000 1.000000
42 1 53.584117 87.251201 53.584117 87.251201 0.000000 0.000000 1.000000 1.000000 1.000000
43 1 269.664252 137.730983 -9.529718 137.730983 -0.000000 0.000000 1.000000 1.000000 1.000000
44 1 53.364679 3.743330 53.364679 3.743330 -0.000000 -0.000000 1.000000 1.000000 1.000000
45 1 266.438844 236.924790 266.438844 236.924790 0.000000 0.000000 1.000000 1.000000 1.000000
46 1 139.925680 178.587106 139.925680 178.587106 -0.000000 -0.000000 1.000000 1.000000 1.000000
47 1 125.913250 53.900877 125.913250 53.900877 -0.000000 0.000000 1.000000 1.000000 1.000000
48 1 55.059562 257.099008 55.059562 -22.094962 0.000000 -0.000000 1.000000 1.000000 1.000000
49 1 188.899947 226.516876 188.899947 226.516876 -0.000000 -0.000000 1.000000 1.000000 1.000000
50 1 261.378348 57.832599 -17.815622 57.832599 -0.000000 0.000000 1.000000 1.000000 1.000000
51 1 184.055138 141.696402 184.055138 141.696402 -0.000000 0.000000 1.000000 1.000000 1.000000
52 1 47.556834 244.989234 47.556834 244.989234 -0.000000 0.000000 1.000000 1.000000 1.000000
53 1 9.241708 17.672694 9.241708 17.672694 0.000000 -0.000000 1.000000 1.000000 1.000000
54 1 101.748385 265.183518 101.748385 265.183518 -0.000000 0.000000 1.000000 1.000000 1.000000
55 1 224.454730 140.019265 224.454730 140.019265 -0.000000 0.000000 1.000000 1.000000 1.000000
56 1 245.314184 179.550457 245.314184 179.550457 -0.000000 0.000000 1.000000 1.000000 1.000000
57 1 176.500203 210.246011 176.500203 210.246011 -0.000000 0.000000 1.000000 1.000000 1.000000
58 1 271.385144 251.411563 271.385144 251.411563 0.000000 0.000000 1.000000 1.000000 1.000000
59 1 127.931608 67.171365 127.931608 67.171365 -0.000000 0.000000 1.000000 1.000000 1.000000
60 1 55.426967 104.960356 55.426967 104.960356 -0.000000 0.000000 1.000000 1.000000 1.000000
61 1 121.159359 151.661081 121.159359 151.661081 0.000000 -0.000000 1.000000 1.000000 1.000000
62 1 180.482241 246.833117 180.482241 246.833117 0.000000 0.000000 1.000000 1.000000 1.000000
63 1 11.091096 119.781925 11.091096 119.781925 -0.000000 -0.000000 1.000000 1.000000 1.000000
64 1 114.686671 241.868177 114.686671 241.868177 0.000000 -0.000000 1.000000 1.000000 1.000000
65 1 14.172429 105.612924 14.172429 105.612924 0.000000 -0.000000 1.000000 1.000000 1.000000
66 1 104.581920 162.128882 104.581920 162.128882 0.000000 -0.000000 1.000000 1.000000 1.000000
67 1 82.833938 154.241516 82.833938 154.241516 0.000000 -0.000000 1.000000 1.000000 1.000000
68 1 66.478435 101.180013 66.478435 101.180013 -0.000000 -0.000000 1.000000 1.000000 1.000000
69 1 156.780467 221.520378 156.780467 221.520378 0.000000 -0.000000 1.000000 1.000000 1.000000
70 1 172.523950 65.936498 172.523950 65.936498 0.000000 0.000000 1.000000 1.000000 1.000000
71 1 7.612754 9.695577 7.612754 9.695577 0.000000 0.000000 1.000000 1.000000 1.000000
72 1 196.002533 115.983232 196.002533 115.983232 -0.000000 -0.000000 1.000000 1.000000 1.000000
73 1 241.013441 124.457165 241.013441 124.457165 -0.000000 0.000000 1.000000 1.000000 1.000000
74 1 271.484444 0.618520 271.484444 0.618520 0.000000 0.000000 1.000000 1.000000 1.000000
75 1 53.290095 84.766202 53.290095 84.766202 0.000000 -0.000000 1.000000 1.000000 1.000000
76 1 78.947413 18.334748 78.947413 18.334748 -0.000000 -0.000000 1.000000 1.000000 1.000000
77 1 31.046783 211.744927 31.046783 211.744927 -0.000000 0.000000 1.000000 1.000000 1.000000
78 1 152.004976 114.849263 152.004976 114.849263 0.000000 0.000000 1.000000 1.000000 1.000000
79 1 229.827994 94.343408 229.827994 94.343408 0.000000 0.000000 1.000000 1.000000 1.000000
80 1 152.996595 9.981335 152.996595 289.175305 -0.000000 -0.000000 1.000000 1.000000 1.000000
81 1 209.977112 160.363196 209.977112 160.363196 0.000000 -0.000000 1.000000 1.000000 1.000000
82 1 146.453000 270.190955 146.453000 270.190955 -0.000000 0.000000 1.000000 1.000000 1.000000
83 1 53.299879 138.446419 53.299879 138.446419 -0.000000 -0.000000 1.000000 1.000000 1.000000
84 1 0.528402 143.565612 279.722372 143.565612 -0.000000 -0.000000 1.000000 1.000000 1.000000
85 1 51.981492 260.621964 51.981492 260.621964 0.000000 -0.000000 1.000000 1.000000 1.000000
86 1 209.707580 92.714697 209.707580 92.714697 0.000000 0.000000 1.000000 1.000000 1.000000
87 1 194.239366 79.388450 194.239366 79.388450 -0.000000 -0.000000 1.000000 1.000000 1.000000
88 1 157.164882 179.827613 157.164882 179.827613 0.000000 -0.000000 1.000000 1.000000 1.000000
89 1 254.757823 132.888456 254.757823 132.888456 0.000000 -0.000000 1.000000 1.000000 1.000000
90 1 277.314661 69.122235 277.314661 69.122235 -0.000000 -0.000000 1.000000 1.000000 1.000000
91 1 29.351095 37.710835 29.351095 37.710835 0.000000 -0.000000 1.000000 1.000000 1.000000
92 1 213.056576 247.995451 213.056576 247.995451 0.000000 -0.000000 1.000000 1.000000 1.000000
93 1 201.199994 135.470801 201.199994 135.470801 0.000000 -0.000000 1.000000 1.000000 1.000000
94 1 243.867226 200.974231 243.867226 200.974231 -0.000000 0.000000 1.000000 1.000000 1.000000
95 1 197.303496 221.458792 197.303496 221.458792 0.000000 0.000000 1.000000 1.000000 1.000000
96 1 208.299699 13.714597 208.299699 292.908567 0.000000 0.000000 1.000000 1.000000 1.000000
97 1 247.554194 254.559506 247.554194 254.559506 -0.000000 -0.000000 1.000000 1.000000 1.000000
98 1 153.960609 23.360133 153.960609 23.360133 -0.000000 0.000000 1.000000 1.000000 1.000000
99 1 183.079833 220.063577 183.079833 220.063577 0.000000 0.000000 1.000000 1.000000 1.000000
100 1 194.981120 186.270803 194.981120 186.270803 0.000000 -0.000000 1.000000 1.000000 1.000000
101 1 9.780741 126.959087 288.974711 126.959087 -0.000000 -0.000000 1.000000 1.000000 1.000000
102 1 140.393215 168.343102 140.393215 168.343102 0.000000 0.000000 1.000000 1.000000 1.000000
103 1 272.711952 122.074138 272.711952 122.074138 -0.000000 -0.000000 1.000000 1.000000 1.000000
104 1 45.851319 220.014348 45.851319 220.014348 0.000000 0.000000 1.000000 1.000000 1.000000
105 1 88.960613 72.714764 88.960613 72.714764 -0.000000 -0.000000 1.000000 1.000000 1.000000
106 1 4.031267 124.194548 4.031267 124.194548 -0.000000 0.000000 1.000000 1.000000 1.000000
107 1 75.983487 146.118143 75.983487 146.118143 0.000000 0.000000 1.000000 1.000000 1.000000
108 1 132.854545 235.894381 132.854545 235.894381 0.000000 -0.000000 1.000000 1.000000 1.000000
109 1 277.149783 113.138443 277.149783 113.138443 0.000000 0.000000 1.000000 1.000000 1.000000
110 1 250.776458 230.993703 250.776458 230.993703 0.000000 -0.000000 1.000000 1.000000 1.000000
111 1 242.051762 215.421787 242.051762 215.421787 -0.000000 -0.000000 1.000000 1.000000 1.000000
112 1 201.964325 240.283214 201.964325 240.283214 -0.000000 0.000000 1.000000 1.000000 1.000000
113 1 13.157544 61.378542 13.157544 61.378542 0.000000 0.000000 1.000000 1.000000 1.000000
114 1 22.684304 176.796703 22.684304 176.796703 0.000000 0.000000 1.000000 1.000000 1.000000
115 1 192.235243 221.443195 192.235243 221.443195 -0.000000 0.000000 1.000000 1.000000 1.000000
116 1 93.205093 254.019417 93.205093 254.019417 0.000000 -0.000000 1.000000 1.000000 1.000000
117 1 28.457552 114.505955 28.457552 114.505955 -0.000000 -0.000000 1.000000 1.000000 1.000000
118 1 224.960103 124.245446 224.960103 124.245446 0.000000 -0.000000 1.000000 1.000000 1.000000
119 1 254.219988 174.986566 254.219988 174.986566 -0.000000 -0.000001 1.000000 1.000000 1.000000
120 1 203.011712 186.592532 203.011712 186.592532 0.000000 -0.000000 1.000000 1.000000 1.000000
121 1 254.216479 265.521046 254.216479 265.521046 0.000000 -0.000000 1.000000 1.000000 1.000000
122 1 88.969020 109.885913 88.969020 109.885913 0.000000 0.000000 1.000000 1.000000 1.000000
123 1 26.420371 193.060614 26.420371 193.060614 -0.000000 0.000000 1.000000 1.000000 1.000000
124 1 227.387852 5.017592 227.387852 284.211562 -0.000000 0.000000 1.000000 1.000000 1.000000
125 1 271.286377 161.186744 271.286377 161.186744 -0.000000 -0.000000 1.000000 1.000000 1.000000
126 1 263.018534 214.186703 263.018534 214.186703 -0.000000 -0.000000 1.000000 1.000000 1.000000
127 1 84.540446 5.407943 84.540446 5.407943 0.000000 -0.000000 1.000000 1.000000 1.000000
128 1 208.937973 192.957274 208.937973 192.957274 -0.000000 0.000000 1.000000 1.000000 1.000000
129 1 194.469399 36.358363 194.469399 36.358363 0.000000 -0.000000 1.000000 1.000000 1.000000
130 1 129.920113 209.771657 129.920113 209.771657 0.000000 0.000000 1.000000 1.000000 1.000000
131 1 145.024879 129.947377 145.024879 129.947377 -0.000000 -0.000000 1.000000 1.000000 1.000000
132 1 206.939963 82.303791 206.939963 82.303791 -0.000000 0.000000 1.000000 1.000000 1.000000
133 1 38.131998 195.951674 38.131998 195.951674 0.000000 -0.000000 1.000000 1.000000 1.000000
134 1 88.192407 203.246295 88.192407 203.246295 0.000000 0.000000 1.000000 1.000000 1.000000
135 1 12.643140 145.965466 12.643140 145.965466 0.000000 -0.000000 1.000000 1.000000 1.000000
136 1 266.184037 37.555131 266.184037 37.555131 0.000000 0.000000 1.000000 1.000000 1.000000
137 1 196.985672 211.601554 196.985672 211.601554 -0.000000 -0.000000 1.000000 1.000000 1.000000
138 1 267.213216 198.738877 267.213216 198.738877 -0.000000 0.000000 1.000000 1.000000 1.000000
139 1 57.700956 64.892272 57.700956 64.892272 -0.000000 0.000000 1.000000 1.000000 1.000000
140 1 278.558200 106.528841 278.558200 106.528841 0.000000 -0.000000 1.000000 1.000000 1.000000
141 1 25.629993 278.406119 25.629993 278.406119 0.000000 0.000000 1.000000 1.000000 1.000000
142 1 103.787909 206.892887 103.787909 206.892887 0.000000 -0.000000 1.000000 1.000000 1.000000
143 1 129.920702 144.168205 129.920702 144.168205 -0.000000 0.000000 1.000000 1.000000 1.000000
144 1 39.350650 96.573850 39.350650 96.573850 -0.000000 0.000000 1.000000 1.000000 1.000000
145 1 237.176755 31.870900 237.176755 31.870900 0.000000 -0.000000 1.000000 1.000000 1.000000
146 1 69.774104 31.472473 69.774104 31.472473 0.000000 0.000000 1.000000 1.000000 1.000000
147 1 155.788818 73.619014 155.788818 73.619014 -0.000000 0.000000 1.000000 1.000000 1.000000
148 1 185.928421 16.078395 185.928421 16.078395 -0.000000 0.000000 1.000000 1.000000 1.000000
149 1 183.361245 190.830887 183.361245 190.830887 -0.000000 0.000000 1.000000 1.000000 1.000000
150 1 207.445003 57.271913 207.445003 57.271913 -0.000000 -0.000000 1.000000 1.000000 1.000000
151 1 99.031927 65.124175 99.031927 65.124175 0.000000 0.000000 1.000000 1.000000 1.000000
152 1 248.123028 129.763052 248.123028 129.763052 -0.000000 -0.000000 1.000000 1.000000 1.000000
153 1 170.265756 34.534845 170.265756 34.534845 -0.000000 0.000000 1.000000 1.000000 1.000000
154 1 154.073379 256.428634 154.073379 256.428634 -0.000000 0.000000 1.000000 1.000000 1.000000
155 1 213.536281 40.084904 213.536281 40.084904 -0.000000 0.000000 1.000000 1.000000 1.000000
156 1 270.174372 109.038861 270.174372 109.038861 0.000000 0.000000 1.000000 1.000000 1.000000
157 1 160.398838 23.001736 160.398838 23.001736 -0.000000 -0.000000 1.000000 1.000000 1.000000
158 1 19.666282 260.228414 19.666282 260.228414 0.000000 -0.000000 1.000000 1.000000 1.000000
159 1 15.598166 271.178822 294.792136 -8.015148 -0.000000 -0.000000 1.000000 1.000000 1.000000
160 1 105.893046 254.653908 105.893046 254.653908 0.000000 0.000000 1.000000 1.000000 1.000000
161 1 75.715655 87.924257 75.715655 87.924257 -0.000000 0.000000 1.000000 1.000000 1.000000
162 1 142.078119 275.953992 142.078119 275.953992 -0.000000 0.000000 1.000000 1.000000 1.000000
163 1 176.632451 108.227076 176.632451 108.227076 -0.000000 0.000000 1.000000 1.000000 1.000000
164 1 197.215458 172.296821 197.215458 172.296821 -0.000000 -0.000000 1.000000 1.000000 1.000000
165 1 180.828740 115.290822 180.828740 115.290822 -0.000000 -0.000000 1.000000 1.000000 1.000000
166 1 233.799132 192.352468 233.799132 192.352468 -0.000000 -0.000000 1.000000 1.000000 1.000000
167 1 29.767520 136.406649 29.767520 136.406649 -0.000000 -0.000000 1.000000 1.000000 1.000000
168 1 92.326145 25.798123 92.326145 25.798123 -0.000000 -0.000000 1.000000 1.000000 1.000000
169 1 63.902177 278.533347 63.902177 -0.660623 -0.000000 -0.000000 1.000000 1.000000 1.000000
170 1 257.409474 250.005133 257.409474 250.005133 0.000000 0.000000 1.000000 1.000000 1.000000
171 1 232.757450 129.595908 232.757450 129.595908 0.000000 0.000000 1.000000 1.000000 1.000000
172 1 132.025221 220.896105 132.025221 220.896105 0.000000 -0.000000 1.000000 1.000000 1.000000
173 1 50.882418 239.679909 50.882418 239.679909 -0.000000 0.000000 1.000000 1.000000 1.000000
174 1 168.394763 16.882766 168.394763 16.882766 -0.000000 -0.000000 1.000000 1.000000 1.000000
175 1 34.281347 216.760092 34.281347 216.760092 -0.000000 0.000000 1.000000 1.000000 1.000000
176 1 171.213097 104.153473 171.213097 104.153473 -0.000000 -0.000000 1.000000 1.000000 1.000000
177 1 132.553824 78.582403 132.553824 78.582403 -0.000000 0.000000 1.000000 1.000000 1.000000
178 1 43.127530 77.146877 43.127530 77.146877 -0.000000 0.000000 1.000000 1.000000 1.000000
179 1 177.452835 250.371930 177.452835 250.371930 -0.000000 0.000000 1.000000 1.000000 1.000000
180 1 51.607480 172.194706 51.607480 172.194706 0.000000 0.000000 1.000000 1.000000 1.000000
181 1 130.331599 49.375138 130.331599 49.375138 -0.000000 0.000000 1.000000 1.000000 1.000000
182 1 67.882716 136.194522 67.882716 136.194522 -0.000000 0.000000 1.000000 1.000000 1.000000
183 1 26.849202 180.277883 26.849202 180.277883 -0.000000 -0.000000 1.000000 1.000000 1.000000
184 1 263.509097 13.360961 263.509097 13.360961 -0.000000 -0.000000 1.000000 1.000000 1.000000
185 1 141.043577 72.256678 141.043577 72.256678 -0.000000 -0.000000 1.000000 1.000000 1.000000
186 1 14.009158 226.149343 14.009158 226.149343 0.000000 -0.000000 1.000000 1.000000 1.000000
187 1 222.813981 148.366847 222.813981 148.366847 -0.000000 -0.000000 1.000000 1.000000 1.000000
188 1 214.910240 154.844237 214.910240 154.844237 -0.000000 0.000000 1.000000 1.000000 1.000000
189 1 256.354493 167.268819 256.354493 167.268819 0.000000 -0.000000 1.000000 1.000000 1.000000
190 1 251.187739 158.534852 251.187739 158.534852 0.000000 -0.000000 1.000000 1.000000 1.000000
191 1 219.982990 152.542715 219.982990 152.542715 -0.000000 0.000000 1.000000 1.000000 1.000000
192 1 110.299727 257.640304 110.299727 257.640304 0.000000 -0.000000 1.000000 1.000000 1.000000
193 1 240.316304 61.675101 240.316304 61.675101 -0.000000 -0.000000 1.000000 1.000000 1.000000
194 1 67.865423 37.650918 67.865423 37.650918 0.000000 0.000000 1.000000 1.000000 1.000000
195 1 219.266647 278.779075 219.266647 278.779075 0.000000 0.000000 1.000000 1.000000 1.000000
196 1 151.568014 25.219086 151.568014 25.219086 -0.000000 -0.000000 1.000000 1.000000 1.000000
197 1 199.221078 170.821441 199.221078 170.821441 -0.000000 0.000000 1.000000 1.000000 1.000000
198 1 176.070055 185.807800 176.070055 185.807800 -0.000000 0.000000 1.000000 1.000000 1.000000
199 1 165.659943 272.465878 165.659943 272.465878 0.000000 -0.000000 1.000000 1.000000 1.000000
200 1 91.720374 129.687214 91.720374 129.687214 0.000000 -0.000000 1.000000 1.000000 1.000000
201 1 90.078150 165.924776 90.078150 165.924776 -0.000000 -0.000000 1.000000 1.000000 1.000000
202 1 20.306444 4.690162 20.306444 283.884132 0.000000 0.000000 1.000000 1.000000 1.000000
203 1 126.626316 3.885286 126.626316 3.885286 0.000000 -0.000000 1.000000 1.000000 1.000000
204 1 137.663645 52.720039 137.663645 52.720039 0.000000 -0.000000 1.000000 1.000000 1.000000
205 1 24.420643 120.251806 24.420643 120.251806 -0.000000 -0.000000 1.000000 1.000000 1.000000
206 1 198.861120 101.926218 198.861120 101.926218 -0.000000 0.000001 1.000000 1.000000 1.000000
207 1 33.015167 181.446090 33.015167 181.446090 0.000000 0.000000 1.000000 1.000000 1.000000
208 1 25.591680 259.672119 25.591680 259.672119 0.000000 -0.000000 1.000000 1.000000 1.000000
209 1 247.151750 210.467777 247.151750 210.467777 -0.000000 0.000000 1.000000 1.000000 1.000000
210 1 64.662844 64.648422 64.662844 64.648422 0.000000 0.000000 1.000000 1.000000 1.000000
211 1 196.752086 249.729615 196.752086 249.729615 0.000000 0.000000 1.000000 1.000000 1.000000
212 1 156.880224 261.300842 156.880224 261.300842 -0.000000 0.000000 1.000000 1.000000 1.000000
213 1 139.693161 52.342757 139.693161 52.342757 -0.000000 0.000000 1.000000 1.000000 1.000000
214 1 97.254905 237.416071 97.254905 237.416071 0.000000 0.000000 1.000000 1.000000 1.000000
215 1 160.696117 40.237413 160.696117 40.237413 0.000000 0.000000 1.000000 1.000000 1.000000
216 1 2.714604 93.120403 2.714604 93.120403 0.000000 -0.000000 1.000000 1.000000 1.000000
217 1 143.592537 60.894303 143.592537 60.894303 -0.000000 -0.000000 1.000000 1.000000 1.000000
218 1 11.255260 244.371525 11.255260 244.371525 0.000000 0.000000 1.000000 1.000000 1.000000
219 1 156.634751 78.011899 156.634751 78.011899 0.000000 0.000000 1.000000 1.000000 1.000000
220 1 144.667561 181.966621 144.667561 181.966621 -0.000000 0.000000 1.000000 1.000000 1.000000
221 1 274.323988 279.175440 274.323988 -0.018530 0.000000 -0.000000 1.000000 1.000000 1.000000
222 1 73.173395 24.155476 73.173395 24.155476 -0.000000 -0.000000 1.000000 1.000000 1.000000
223 1 112.239714 149.311745 112.239714 149.311745 0.000000 0.000000 1.000000 1.000000 1.000000
224 1 164.982807 47.150833 164.982807 47.150833 -0.000000 0.000000 1.000000 1.000000 1.000000
225 1 217.226931 246.566221 217.226931 246.566221 0.000000 -0.000000 1.000000 1.000000 1.000000
226 1 63.118286 24.074832 63.118286 24.074832 -0.000000 0.000000 1.000000 1.000000 1.000000
227 1 245.724490 240.961732 245.724490 240.961732 -0.000000 -0.000000 1.000000 1.000000 1.000000
228 1 33.899265 54.289965 33.899265 54.289965 0.000000 0.000000 1.000000 1.000000 1.000000
229 1 214.608749 42.611666 214.608749 42.611666 -0.000000 0.000000 1.000000 1.000000 1.000000
230 1 44.096049 248.822411 44.096049 248.822411 0.000000 -0.000000 1.000000 1.000000 1.000000
231 1 201.801330 67.166675 201.801330 67.166675 0.000000 -0.000000 1.000000 1.000000 1.000000
232 1 119.914746 262.340933 119.914746 262.340933 -0.000000 -0.000000 1.000000 1.000000 1.000000
233 1 178.368304 43.252740 178.368304 43.252740 0.000000 -0.000000 1.000000 1.000000 1.000000
234 1 177.216170 130.686963 177.216170 130.686963 -0.000000 0.000000 1.000000 1.000000 1.000000
235 1 240.265974 191.022942 240.265974 191.022942 0.000000 -0.000000 1.000000 1.000000 1.000000
236 1 17.227563 208.647968 17.227563 208.647968 0.000000 0.000000 1.000000 1.000000 1.000000
237 1 104.999605 113.735290 104.999605 113.735290 -0.000000 -0.000000 1.000000 1.000000 1.000000
238 1 190.540707 175.026407 190.540707 175.026407 0.000000 -0.000000 1.000000 1.000000 1.000000
239 1 276.713713 40.540455 276.713713 40.540455 0.000000 0.000000 1.000000 1.000000 1.000000
240 1 186.991519 198.277913 186.991519 198.277913 0.000000 0.000000 1.000000 1.000000 1.000000
241 1 110.209854 61.629649 110.209854 61.629649 -0.000000 0.000000 1.000000 1.000000 1.000000
242 1 168.180328 34.289365 168.180328 34.289365 -0.000000 -0.000000 1.000000 1.000000 1.000000
243 1 253.254346 194.674146 253.254346 194.674146 0.000000 -0.000000 1.000000 1.000000 1.000000
244 1 104.686503 9.326989 104.686503 9.326989 -0.000000 0.000000 1.000000 1.000000 1.000000
245 1 41.885935 138.913757 41.885935 138.913757 0.000000 -0.000000 1.000000 1.000000 1.000000
246 1 69.223631 266.864584 69.223631 266.864584 0.000000 0.000000 1.000000 1.000000 1.000000
247 1 189.348063 232.192404 189.348063 232.192404 0.000000 0.000000 1.000000 1.000000 1.000000
248 1 191.221496 247.881010 191.221496 247.881010 -0.000000 0.000000 1.000000 1.000000 1.000000
249 1 187.637719 35.905591 187.637719 35.905591 0.000000 -0.000000 1.000000 1.000000 1.000000
250 1 239.776668 15.109381 239.776668 15.109381 -0.000000 -0.000000 1.000000 1.000000 1.000000
251 1 261.782694 123.691715 261.782694 123.691715 -0.000000 0.000000 1.000000 1.000000 1.000000
252 1 28.548762 276.373522 28.548762 276.373522 -0.000000 -0.000000 1.000000 1.000000 1.000000
253 1 77.862848 277.068254 77.862848 277.068254 -0.000000 0.000000 1.000000 1.000000 1.000000
254 1 244.517946 253.191790 244.517946 253.191790 0.000000 0.000000 1.000000 1.000000 1.000000
255 1 63.820070 92.022346 63.820070 92.022346 -0.000000 0.000000 1.000000 1.000000 1.000000
256 1 275.787809 58.960707 275.787809 58.960707 0.000000 0.000000 1.000000 1.000000 1.000000
257 1 33.243434 218.585593 33.243434 218.585593 0.000000 -0.000000 1.000000 1.000000 1.000000
258 1 154.173991 210.743414 154.173991 210.743414 -0.000000 0.000000 1.000000 1.000000 1.000000
259 1 143.507128 45.270166 143.507128 45.270166 -0.000000 -0.000000 1.000000 1.000000 1.000000
260 1 206.822271 236.716561 206.822271 236.716561 -0.000000 0.000000 1.000000 1.000000 1.000000
261 1 221.182371 50.168228 221.182371 50.168228 0.000000 0.000000 1.000000 1.000000 1.000000
262 1 215.866129 205.263346 215.866129 205.263346 0.000000 -0.000000 1.000000 1.000000 1.000000
263 1 69.784807 243.367639 69.784807 243.367639 -0.000000 0.000000 1.000000 1.000000 1.000000
264 1 232.687848 148.303481 232.687848 148.303481 -0.000000 0.000000 1.000000 1.000000 1.000000
265 1 214.495311 203.327541 214.495311 203.327541 -0.000000 -0.000000 1.000000 1.000000 1.000000
266 1 67.155222 56.485398 67.155222 56.485398 -0.000000 -0.000000 1.000000 1.000000 1.000000
267 1 257.412666 237.601971 257.412666 237.601971 -0.000000 0.000000 1.000000 1.000000 1.000000
268 1 131.406894 177.366395 131.406894 177.366395 0.000000 -0.000000 1.000000 1.000000 1.000000
269 1 201.076135 46.372970 201.076135 46.372970 -0.000000 0.000000 1.000000 1.000000 1.000000
270 1 239.719001 153.168209 239.719001 153.168209 -0.000000 0.000000 1.000000 1.000000 1.000000
271 1 96.754009 90.435948 96.754009 90.435948 0.000000 -0.000000 1.000000 1.000000 1.000000
272 1 113.908737 234.143562 113.908737 234.143562 0.000000 -0.000000 1.000000 1.000000 1.000000
273 1 1.384174 211.236921 280.578144 211.236921 0.000000 0.000000 1.000000 1.000000 1.000000
274 1 227.403465 223.732765 227.403465 223.732765 0.000000 -0.000000 1.000000 1.000000 1.000000
275 1 79.808945 46.631224 79.808945 46.631224 -0.000000 -0.000000 1.000000 1.000000 1.000000
276 1 250.022075 108.544360 250.022075 108.544360 -0.000000 0.000000 1.000000 1.000000 1.000000
277 1 104.548413 146.383345 104.548413 146.383345 0.000000 -0.000000 1.000000 1.000000 1.000000
278 1 145.647881 32.376655 145.647881 32.376655 0.000000 -0.000000 1.000000 1.000000 1.000000
279 1 243.456307 14.665181 243.456307 14.665181 -0.000000 0.000000 1.000000 1.000000 1.000000
280 1 106.967871 163.551587 106.967871 163.551587 -0.000000 -0.000000 1.000000 1.000000 1.000000
281 1 122.517328 191.354855 122.517328 191.354855 -0.000000 -0.000000 1.000000 1.000000 1.000000
282 1 258.388044 141.509581 258.388044 141.509581 0.000000 0.000000 1.000000 1.000000 1.000000
283 1 109.555660 166.135591 109.555660 166.135591 0.000000 0.000000 1.000000 1.000000 1.000000
284 1 244.305439 272.654777 244.305439 272.654777 -0.000000 0.000000 1.000000 1.000000 1.000000
285 1 205.266180 58.817872 205.266180 58.817872 -0.000000 -0.000000 1.000000 1.000000 1.000000
286 1 247.067423 38.999925 247.067423 38.999925 -0.000000 -0.000000 1.000000 1.000000 1.000000
287 1 24.912953 241.355910 24.912953 241.355910 -0.000000 0.000000 1.000000 1.000000 1.000000
288 1 18.881406 33.197710 18.881406 33.197710 0.000000 0.000000 1.000000 1.000000 1.000000
289 1 24.577978 153.299130 303.771948 153.299130 0.000000 -0.000000 1.000000 1.000000 1.000000
290 1 239.537344 267.315303 239.537344 -11.878667 -0.000000 -0.000000 1.000000 1.000000 1.000000
291 1 118.760159 164.920965 118.760159 164.920965 -0.000000 0.000000 1.000000 1.000000 1.000000
292 1 222.925688 33.642593 222.925688 33.642593 0.000000 0.000000 1.000000 1.000000 1.000000
293 1 233.482198 95.777718 233.482198 95.777718 -0.000000 -0.000000 1.000000 1.000000 1.000000
294 1 8.918191 130.755391 8.918191 130.755391 0.000000 -0.000000 1.000000 1.000000 1.000000
295 1 21.767996 123.825972 21.767996 123.825972 -0.000000 0.000000 1.000000 1.000000 1.000000
296 1 105.205345 61.958567 105.205345 61.958567 -0.000000 0.000000 1.000000 1.000000 1.000000
297 1 153.364814 1.208891 153.364814 280.402861 -0.000000 0.000000 1.000000 1.000000 1.000000
298 1 51.477635 167.084149 51.477635 167.084149 0.000000 0.000000 1.000000 1.000000 1.000000
299 1 200.796395 132.894001 200.796395 132.894001 0.000000 0.000000 1.000000 1.000000 1.000000
300 1 230.554405 84.763489 230.554405 84.763489 0.000000 -0.000000 1.000000 1.000000 1.000000
301 1 232.667210 79.484799 232.667210 79.484799 0.000000 0.000000 1.000000 1.000000 1.000000
302 1 181.557187 89.408648 181.557187 89.408648 0.000000 -0.000000 1.000000 1.000000 1.000000
303 1 263.784636 178.971817 263.784636 178.971817 0.000000 -0.000000 1.000000 1.000000 1.000000
304 1 233.023344 25.213387 233.023344 25.213387 -0.000000 0.000000 1.000000 1.000000 1.000000
305 1 208.007174 205.091528 208.007174 205.091528 -0.000000 0.000000 1.000000 1.000000 1.000000
306 1 260.030216 59.543195 -19.163754 59.543195 0.000000 0.000000 1.000000 1.000000 1.000000
307 1 277.882559 6.626683 -1.311411 6.626683 0.000000 0.000000 1.000000 1.000000 1.000000
308 1 191.756622 211.836459 191.756622 211.836459 0.000000 0.000000 1.000000 1.000000 1.000000
309 1 91.018911 217.488078 91.018911 217.488078 -0.000000 0.000000 1.000000 1.000000 1.000000
310 1 107.826170 132.847759 107.826170 132.847759 -0.000000 0.000000 1.000000 1.000000 1.000000
311 1 39.972403 260.990038 39.972403 260.990038 0.000000 -0.000000 1.000000 1.000000 1.000000
312 1 190.016882 266.312728 190.016882 -12.881242 0.000000 -0.000000 1.000000 1.000000 1.000000
313 1 170.458089 189.504661 170.458089 189.504661 -0.000000 0.000000 1.000000 1.000000 1.000000
314 1 217.247528 53.919057 217.247528 53.919057 -0.000000 0.000000 1.000000 1.000000 1.000000
315 1 172.492541 53.575079 172.492541 53.575079 0.000000 0.000000 1.000000 1.000000 1.000000