ITEM: TIMESTEP
1600.000000
ITEM: NUMBER OF ATOMS
5000
ITEM: BOX BOUNDS xy xz yz
0 238.016126 0
0 238.016126 0
0 2 0
ITEM: ATOMS id type x y xu yu vx vy radius m z
0 1 45.055818 101.187455 45.055818 101.187455 -0.000000 0.000000 1.000000 1.000000 1.000000
1 1 183.226161 140.540478 183.226161 140.540478 0.000000 -0.000000 1.000000 1.000000 1.000000
2 1 173.787272 189.192624 173.787272 189.192624 -0.000000 -0.000000 1.000000 1.000000 1.000000
3 1 88.797734 189.142587 88.797734 189.142587 -0.000000 0.000000 1.000000 1.000000 1.000000
4 1 19.342360 30.588171 19.342360 30.588171 -0.000000 -0.000000 1.000000 1.000000 1.000000
5 1 213.151613 224.099084 213.151613 224.099084 -0.000000 0.000000 1.000000 1.000000 1.000000
6 1 133.651014 138.981232 133.651014 138.981232 -0.000000 -0.000000 1.000000 1.000000 1.000000
7 1 211.432253 31.589045 211.432253 31.589045 -0.000000 -0.000000 1.000000 1.000000 1.000000
8 1 210.526006 26.934689 210.526006 26.934689 0.000000 -0.000000 1.000000 1.000000 1.000000
9 1 98.711869 0.126078 98.711869 0.126078 -0.000000 0.000000 1.000000 1.000000 1.000000
10 1 40.887697 230.046590 40.887697 230.046590 0.000000 0.000000 1.000000 1.000000 1.000000
11 1 94.118218 134.786527 94.118218 134.786527 0.000000 0.000000 1.000000 1.000000 1.000000
12 1 78.632816 152.991943 78.632816 152.991943 0.000000 0.000000 1.000000 1.000000 1.000000
13 1 204.774256 91.932840 204.774256 91.932840 -0.000000 0.000000 1.000000 1.000000 1.000000
14 1 11.924879 130.372289 11.924879 130.372289 -0.000000 -0.000000 1.000000 1.000000 1.000000
15 1 154.271046 42.188564 154.271046 42.188564 -0.000000 -0.000000 1.000000 1.000000 1.000000
16 1 104.825866 141.982738 104.825866 141.982738 -0.000000 -0.000000 1.000000 1.000000 1.000000
17 1 66.699063 150.404041 66.699063 150.404041 -0.000000 -0.000000 1.000000 1.000000 1.000000
18 1 220.426516 105.343123 220.426516 105.343123 -0.000000 -0.000000 1.000000 1.000000 1.000000
19 1 166.740655 55.909193 166.740655 55.909193 -0.000000 -0.000000 1.000000 1.000000 1.000000
20 1 93.036107 178.599147 93.036107 178.599147 -0.000000 0.000000 1.000000 1.000000 1.000000
21 1 8.119139 104.015619 8.119139 104.015619 0.000000 -0.000000 1.000000 1.000000 1.000000
22 1 139.069682 189.640710 139.069682 189.640710 0.000000 0.000000 1.000000 1.000000 1.000000
23 1 141.412641 81.041199 141.412641 81.041199 -0.000000 0.000000 1.000000 1.000000 1.000000
24 1 120.918976 11.229682 120.918976 11.229682 -0.000000 0.000000 1.000000 1.000000 1.000000
25 1 124.621356 38.118617 124.621356 38.118617 0.000000 -0.000000 1.000000 1.000000 1.000000
26 1 92.749894 182.395532 92.749894 182.395532 0.000000 -0.000000 1.000000 1.000000 1.000000
27 1 99.947853 187.525292 99.947853 187.525292 0.000000 0.000000 1.000000 1.000000 1.000000
28 1 111.376640 108.413037 111.376640 108.413037 0.000000 0.000000 1.000000 1.000000 1.000000
29 1 72.586779 186.150256 72.586779 186.150256 0.000000 0.000000 1.000000 1.000000 1.000000
30 1 29.207950 57.577891 29.207950 57.577891 0.000000 -0.000000 1.000000 1.000000 1.000000
31 1 15.046411 94.078794 15.046411 94.078794 0.000000 0.000000 1.000000 1.000000 1.000000
32 1 146.637160 109.622239 146.637160 109.622239 -0.000000 0.000000 1.000000 1.000000 1.000000
33 1 47.441522 41.693643 47.441522 41.693643 -0.000000 0.000000 1.000000 1.000000 1.000000
34 1 49.924737 156.231008 49.924737 156.231008 0.000000 0.000000 1.000000 1.000000 1.000000
35 1 224.060243 11.788335 224.060243 11.788335 0.000000 -0.000000 1.000000 1.000000 1.000000
36 1 205.408915 224.004578 205.408915 224.004578 0.000000 -0.000000 1.000000 1.000000 1.000000
37 1 133.553852 215.411908 133.553852 215.411908 -0.000000 -0.000000 1.000000 1.000000 1.000000
38 1 133.053964 192.629789 133.053964 192.629789 -0.000000 0.000000 1.000000 1.000000 1.000000
39 1 197.620459 193.085230 197.620459 193.085230 -0.000000 -0.000000 1.000000 1.000000 1.000000
40 1 20.079946 89.434750 20.079946 89.434750 -0.000000 0.000000 1.000000 1.000000 1.000000
41 1 188.367816 237.259843 188.367816 237.259843 -0.000000 -0.000000 1.000000 1.000000 1.000000
42 1 181.756859 227.068568 181.756859 227.068568 -0.000000 -0.000000 1.000000 1.000000 1.000000
43 1 210.409072 17.559675 210.409072 17.559675 0.000000 0.000000 1.000000 1.000000 1.000000
44 1 90.323762 149.834105 90.323762 149.834105 0.000002 0.000002 1.000000 1.000000 1.000000
45 1 202.342605 12.013785 202.342605 12.013785 -0.000000 0.000000 1.000000 1.000000 1.000000
46 1 214.433772 2.880558 214.433772 2.880558 -0.000000 -0.000000 1.000000 1.000000 1.000000
47 1 211.388951 55.761706 211.388951 55.761706 -0.000000 0.000000 1.000000 1.000000 1.000000
48 1 27.058792 168.071740 27.058792 168.071740 -0.000000 0.000000 1.000000 1.000000 1.000000
49 1 15.006554 30.054321 15.006554 30.054321 -0.000000 0.000000 1.000000 1.000000 1.000000
50 1 53.793148 45.049202 53.793148 45.049202 0.000000 -0.000000 1.000000 1.000000 1.000000
51 1 9.493912 80.007842 9.493912 80.007842 -0.000000 0.000000 1.000000 1.000000 1.000000
52 1 233.319019 110.757101 -4.697107 110.757101 -0.000000 0.000000 1.000000 1.000000 1.000000
53 1 20.959841 182.433283 20.959841 182.433283 0.000000 -0.000000 1.000000 1.000000 1.000000
54 1 180.838670 5.375596 180.838670 243.391722 -0.000000 -0.000000 1.000000 1.000000 1.000000
55 1 24.852450 169.202454 24.852450 169.202454 -0.000000 0.000000 1.000000 1.000000 1.000000
56 1 64.149751 29.032130 64.149751 29.032130 -0.000000 0.000000 1.000000 1.000000 1.000000
57 1 17.816098 149.325235 17.816098 149.325235 0.000000 0.000000 1.000000 1.000000 1.000000
58 1 163.188398 17.499541 163.188398 17.499541 0.000000 0.000000 1.000000 1.000000 1.000000
59 1 162.922098 50.579338 162.922098 50.579338 -0.000000 -0.000000 1.000000 1.000000 1.000000
60 1 163.647906 120.725003 163.647906 120.725003 0.000000 -0.000000 1.000000 1.000000 1.000000
61 1 222.045640 57.357860 222.045640 57.357860 0.000000 0.000000 1.000000 1.000000 1.000000
62 1 206.119218 22.320380 206.119218 22.320380 0.000000 0.000000 1.000000 1.000000 1.000000
63 1 223.816530 129.170918 223.816530 129.170918 -0.000000 -0.000000 1.000000 1.000000 1.000000
64 1 190.957094 0.156623 190.957094 0.156623 -0.000000 0.000000 1.000000 1.000000 1.000000
65 1 33.025934 31.555984 33.025934 31.555984 0.000000 0.000000 1.000000 1.000000 1.000000
66 1 162.225843 1.278113 162.225843 239.294239 0.000000 -0.000000 1.000000 1.000000 1.000000
67 1 236.670120 67.862159 -1.346006 67.862159 0.000000 -0.000000 1.000000 1.000000 1.000000
68 1 22.907238 172.937120 22.907238 172.937120 -0.000000 -0.000000 1.000000 1.000000 1.000000
69 1 83.266381 170.222424 83.266381 170.222424 -0.000000 -0.000000 1.000000 1.000000 1.000000
70 1 236.601952 65.499270 236.601952 65.499270 -0.000000 -0.000000 1.000000 1.000000 1.000000
71 1 54.033874 41.426227 54.033874 41.426227 -0.000000 0.000000 1.000000 1.000000 1.000000
72 1 157.704402 83.173754 157.704402 83.173754 -0.000000 -0.000000 1.000000 1.000000 1.000000
73 1 44.759375 200.218164 44.759375 200.218164 -0.000000 -0.000000 1.000000 1.000000 1.000000
74 1 209.385137 189.348109 209.385137 189.348109 0.000000 -0.000000 1.000000 1.000000 1.000000
75 1 38.074854 133.916265 38.074854 133.916265 -0.000000 -0.000000 1.000000 1.000000 1.000000
76 1 102.891173 126.122281 102.891173 126.122281 0.000000 0.000000 1.000000 1.000000 1.000000
77 1 53.520557 163.482086 53.520557 163.482086 -0.000000 0.000000 1.000000 1.000000 1.000000
78 1 78.116349 142.022956 78.116349 142.022956 0.000000 -0.000000 1.000000 1.000000 1.000000
79 1 104.477184 163.425145 104.477184 163.425145 0.000000 -0.000000 1.000000 1.000000 1.000000
80 1 232.295700 75.545325 232.295700 75.545325 -0.000000 0.000000 1.000000 1.000000 1.000000
81 1 5.321501 171.241089 5.321501 171.241089 0.000000 -0.000000 1.000000 1.000000 1.000000
82 1 130.002781 50.558566 130.002781 50.558566 0.000000 0.000000 1.000000 1.000000 1.000000
83 1 115.603888 94.958032 115.603888 94.958032 -0.000000 -0.000000 1.000000 1.000000 1.000000
84 1 107.434629 92.152899 107.434629 92.152899 -0.000000 -0.000000 1.000000 1.000000 1.000000
85 1 139.297188 203.325375 139.297188 203.325375 -0.000000 -0.000000 1.000000 1.000000 1.000000
86 1 229.033008 37.534435 229.033008 37.534435 0.000000 -0.000000 1.000000 1.000000 1.000000
87 1 23.230965 134.858655 23.230965 134.858655 -0.000000 0.000000 1.000000 1.000000 1.000000
88 1 204.140682 53.176768 204.140682 53.176768 0.000000 -0.000000 1.000000 1.000000 1.000000
89 1 190.200775 80.547321 190.200775 80.547321 -0.000000 0.000000 1.000000 1.000000 1.000000
90 1 178.140606 18.677266 178.140606 18.677266 0.000000 0.000000 1.000000 1.000000 1.000000
91 1 96.037899 182.727617 96.037899 182.727617 -0.000000 0.000000 1.000000 1.000000 1.000000
92 1 22.821594 87.847742 22.821594 87.847742 0.000000 -0.000000 1.000000 1.000000 1.000000
93 1 19.148875 128.377630 19.148875 128.377630 -0.000000 0.000000 1.000000 1.000000 1.000000
94 1 58.602404 217.789054 58.602404 217.789054 -0.000000 0.000000 1.000000 1.000000 1.000000
95 1 173.573641 119.894794 173.573641 119.894794 -0.000000 0.000000 1.000000 1.000000 1.000000
96 1 183.647773 62.080163 183.647773 62.080163 -0.000000 -0.000000 1.000000 1.000000 1.000000
97 1 80.162329 211.434993 80.162329 211.434993 0.000000 -0.000000 1.000000 1.000000 1.000000
98 1 110.236630 13.774886 110.236630 13.774886 0.000000 -0.000000 1.000000 1.000000 1.000000
99 1 216.422027 225.851244 216.422027 225.851244 0.000000 0.000000 1.000000 1.000000 1.000000
100 1 148.819401 219.792009 148.819401 219.792009 -0.000000 0.000000 1.000000 1.000000 1.000000
101 1 91.741055 205.355827 91.741055 205.355827 0.000000 -0.000000 1.000000 1.000000 1.000000
102 1 114.215508 143.965267 114.215508 143.965267 -0.000000 -0.000000 1.000000 1.000000 1.000000
103 1 148.962471 215.174177 148.962471 215.174177 -0.000000 0.000000 1.000000 1.000000 1.000000
104 1 216.021530 138.017785 216.021530 138.017785 0.000000 -0.000000 1.000000 1.000000 1.000000
105 1 210.076914 164.385626 210.076914 164.385626 -0.000000 -0.000000 1.000000 1.000000 1.000000
106 1 229.784285 154.547296 229.784285 154.547296 0.000000 -0.000000 1.000000 1.000000 1.000000
107 1 160.794881 131.311880 160.794881 131.311880 -0.000000 -0.000000 1.000000 1.000000 1.000000
108 1 115.549524 113.558116 115.549524 113.558116 -0.000000 -0.000000 1.000000 1.000000 1.000000
109 1 67.605310 190.995578 67.605310 190.995578 0.000000 -0.000000 1.000000 1.000000 1.000000
110 1 86.037410 18.954966 86.037410 18.954966 -0.000000 -0.000000 1.000000 1.000000 1.000000
111 1 137.723156 174.495082 137.723156 174.495082 -0.000000 0.000000 1.000000 1.000000 1.000000
112 1 18.192626 175.024368 256.208752 175.024368 -0.000000 0.000000 1.000000 1.000000 1.000000
113 1 38.204835 49.951095 38.204835 49.951095 -0.000000 -0.000000 1.000000 1.000000 1.000000
114 1 137.530912 90.426783 137.530912 90.426783 0.000000 0.000000 1.000000 1.000000 1.000000
115 1 90.374339 119.929409 90.374339 119.929409 -0.000000 -0.000000 1.000000 1.000000 1.000000
116 1 211.321282 182.605754 211.321282 182.605754 0.000000 -0.000000 1.000000 1.000000 1.000000
117 1 213.004938 42.881031 213.004938 42.881031 0.000000 0.000000 1.000000 1.000000 1.000000
118 1 95.557053 176.793507 95.557053 176.793507 0.000000 0.000000 1.000000 1.000000 1.000000
119 1 44.286875 181.453189 44.286875 181.453189 0.000000 -0.000000 1.000000 1.000000 1.000000
120 1 15.909240 176.263305 15.909240 176.263305 -0.000000 -0.000000 1.000000 1.000000 1.000000
121 1 158.628781 165.779326 158.628781 165.779326 0.000000 0.000000 1.000000 1.000000 1.000000
122 1 114.999757 171.217609 114.999757 171.217609 -0.000000 0.000000 1.000000 1.000000 1.000000
123 1 73.350267 119.151414 73.350267 119.151414 0.000000 0.000000 1.000000 1.000000 1.000000
124 1 237.007811 222.099341 237.007811 222.099341 -0.000000 0.000000 1.000000 1.000000 1.000000
125 1 202.595766 88.562671 202.595766 88.562671 -0.000000 -0.000000 1.000000 1.000000 1.000000
126 1 145.072985 170.089196 145.072985 170.089196 -0.000000 0.000000 1.000000 1.000000 1.000000
127 1 57.521713 108.960423 57.521713 108.960423 0.000000 -0.000000 1.000000 1.000000 1.000000
128 1 222.230539 141.129669 222.230539 141.129669 0.000000 -0.000000 1.000000 1.000000 1.000000
129 1 149.442160 193.615166 149.442160 193.615166 -0.000000 0.000000 1.000000 1.000000 1.000000
130 1 171.441931 210.438223 171.441931 210.438223 0.000000 -0.000000 1.000000 1.000000 1.000000
131 1 121.123211 139.484699 121.123211 139.484699 0.000000 -0.000000 1.000000 1.000000 1.000000
132 1 197.366637 90.846537 197.366637 90.846537 0.000000 -0.000000 1.000000 1.000000 1.000000
133 1 25.920324 81.645448 25.920324 81.645448 -0.000000 0.000000 1.000000 1.000000 1.000000
134 1 96.926163 187.070634 96.926163 187.070634 0.000000 -0.000000 1.000000 1.000000 1.000000
135 1 7.935037 135.818038 7.935037 135.818038 -0.000000 -0.000000 1.000000 1.000000 1.000000
136 1 33.126540 52.614197 33.126540 52.614197 0.000000 -0.000000 1.000000 1.000000 1.000000
137 1 193.423419 52.799428 193.423419 52.799428 0.000000 -0.000000 1.000000 1.000000 1.000000
138 1 27.678634 213.645953 27.678634 213.645953 0.000000 0.000000 1.000000 1.000000 1.000000
139 1 129.511563 64.267966 129.511563 64.267966 0.000000 0.000000 1.000000 1.000000 1.000000
140 1 120.927092 105.710434 120.927092 105.710434 -0.000000 -0.000000 1.000000 1.000000 1.000000
141 1 40.623366 6.249265 40.623366 6.249265 -0.000000 -0.000000 1.000000 1.000000 1.000000
142 1 83.278857 175.279937 83.278857 175.279937 -0.000000 0.000000 1.000000 1.000000 1.000000
143 1 70.467548 119.253153 70.467548 119.253153 -0.000000 -0.000000 1.000000 1.000000 1.000000
144 1 114.121760 223.357290 114.121760 223.357290 -0.000000 0.000000 1.000000 1.000000 1.000000
145 1 97.741624 33.631311 97.741624 33.631311 -0.000000 -0.000000 1.000000 1.000000 1.000000
146 1 70.344721 74.507230 70.344721 74.507230 0.000000 0.000000 1.000000 1.000000 1.000000
147 1 50.213272 228.315357 50.213272 228.315357 0.000000 0.000000 1.000000 1.000000 1.000000
148 1 109.095481 172.781684 109.095481 172.781684 0.000000 0.000000 1.000000 1.000000 1.000000
149 1 105.961352 202.018046 105.961352 202.018046 -0.000000 -0.000000 1.000000 1.000000 1.000000
150 1 151.040751 215.486824 151.040751 215.486824 0.000000 0.000000 1.000000 1.000000 1.000000
151 1 54.843147 104.327056 54.843147 104.327056 0.000000 -0.000000 1.000000 1.000000 1.000000
152 1 176.257181 141.215790 176.257181 141.215790 -0.000000 0.000000 1.000000 1.000000 1.000000
153 1 109.556203 55.058485 109.556203 55.058485 0.000000 -0.000000 1.000000 1.000000 1.000000
154 1 96.218476 59.692193 96.218476 59.692193 0.000000 0.000000 1.000000 1.000000 1.000000
155 1 236.167938 51.295807 -1.848188 51.295807 0.000000 0.000000 1.000000 1.000000 1.000000
156 1 201.705931 99.254758 201.705931 99.254758 0.000000 -0.000000 1.000000 1.000000 1.000000
157 1 20.635831 155.463392 20.635831 155.463392 -0.000000 0.000000 1.000000 1.000000 1.000000
158 1 1.854880 28.135891 239.871006 28.135891 0.000000 0.000000 1.000000 1.000000 1.000000
159 1 21.581703 222.475066 21.581703 222.475066 0.000000 -0.000000 1.000000 1.000000 1.000000
160 1 73.491741 213.587283 73.491741 213.587283 0.000000 0.000000 1.000000 1.000000 1.000000
161 1 134.794374 134.879636 134.794374 134.879636 -0.000000 0.000000 1.000000 1.000000 1.000000
162 1 143.459631 151.028421 143.459631 151.028421 -0.000000 0.000000 1.000000 1.000000 1.000000
163 1 31.557852 207.278659 31.557852 207.278659 -0.000000 -0.000000 1.000000 1.000000 1.000000
164 1 10.838820 20.684327 248.854946 258.700453 0.000000 0.000000 1.000000 1.000000 1.000000
165 1 165.613924 101.247480 165.613924 101.247480 -0.000000 -0.000000 1.000000 1.000000 1.000000
166 1 2.924196 34.293057 240.940322 34.293057 0.000000 -0.000000 1.000000 1.000000 1.000000
167 1 116.510664 75.508150 116.510664 75.508150 0.000000 -0.000000 1.000000 1.000000 1.000000
168 1 207.628645 191.214840 207.628645 191.214840 -0.000000 -0.000000 1.000000 1.000000 1.000000
169 1 200.164277 153.215921 200.164277 153.215921 0.000000 -0.000000 1.000000 1.000000 1.000000
170 1 94.081294 93.599680 94.081294 93.599680 0.000000 0.000000 1.000000 1.000000 1.000000
171 1 180.953686 172.869087 180.953686 172.869087 -0.000000 -0.000000 1.000000 1.000000 1.000000
172 1 233.233207 204.348208 233.233207 204.348208 0.000000 0.000000 1.000000 1.000000 1.000000
173 1 235.079869 37.278703 -2.936257 37.278703 0.000000 0.000000 1.000000 1.000000 1.000000
174 1 155.427800 154.514366 155.427800 154.514366 0.000000 0.000000 1.000000 1.000000 1.000000
175 1 152.188365 207.120335 152.188365 207.120335 -0.000000 -0.000000 1.000000 1.000000 1.000000
176 1 144.157380 51.205959 144.157380 51.205959 0.000000 -0.000000 1.000000 1.000000 1.000000
177 1 56.100659 58.466190 56.100659 58.466190 -0.000000 -0.000000 1.000000 1.000000 1.000000
178 1 19.606675 36.040433 19.606675 36.040433 -0.000000 -0.000000 1.000000 1.000000 1.000000
179 1 7.202675 101.831778 7.202675 101.831778 0.000000 -0.000000 1.000000 1.000000 1.000000
180 1 30.731194 229.705583 30.731194 229.705583 -0.000000 -0.000000 1.000000 1.000000 1.000000
181 1 159.978240 94.744190 159.978240 94.744190 -0.000000 0.000000 1.000000 1.000000 1.000000
182 1 6.236455 154.530297 6.236455 154.530297 0.000000 0.000000 1.000000 1.000000 1.000000
183 1 61.986760 54.132671 61.986760 54.132671 0.000000 0.000000 1.000000 1.000000 1.000000
184 1 68.624171 185.730060 68.624171 185.730060 -0.000000 0.000000 1.000000 1.000000 1.000000
185 1 27.131878 184.680898 27.131878 184.680898 -0.000000 -0.000000 1.000000 1.000000 1.000000
186 1 17.259443 165.701505 17.259443 165.701505 0.000000 -0.000000 1.000000 1.000000 1.000000
187 1 123.656554 130.581647 123.656554 130.581647 -0.000000 0.000000 1.000000 1.000000 1.000000
188 1 214.370219 217.629899 214.370219 217.629899 0.000000 -0.000000 1.000000 1.000000 1.000000
189 1 233.560880 64.517716 -4.455246 64.517716 0.000000 -0.000000 1.000000 1.000000 1.000000
190 1 27.043439 110.924822 27.043439 110.924822 0.000000 0.000000 1.000000 1.000000 1.000000
191 1 38.143111 11.899847 38.143111 11.899847 0.000000 0.000000 1.000000 1.000000 1.000000
192 1 215.296850 50.514693 215.296850 50.514693 0.000000 0.000000 1.000000 1.000000 1.000000
193 1 89.040752 231.474467 89.040752 -6.541659 0.000000 0.000000 1.000000 1.000000 1.000000
194 1 226.101707 90.918348 226.101707 90.918348 -0.000000 0.000000 1.000000 1.000000 1.000000
195 1 216.990232 70.446813 216.990232 70.446813 -0.000000 -0.000000 1.000000 1.000000 1.000000
196 1 60.925253 237.654002 60.925253 -0.362124 -0.000000 0.000000 1.000000 1.000000 1.000000
197 1 66.551859 6.072085 66.551859 6.072085 -0.000000 0.000000 1.000000 1.000000 1.000000
198 1 127.860555 2.585475 127.860555 2.585475 0.000000 -0.000000 1.000000 1.000000 1.000000
199 1 237.050546 153.278169 -0.965580 153.278169 0.000000 -0.000000 1.000000 1.000000 1.000000
200 1 113.058224 117.205981 113.058224 117.205981 0.000000 0.000000 1.000000 1.000000 1.000000
201 1 191.749157 197.248600 191.749157 197.248600 -0.000000 -0.000000 1.000000 1.000000 1.000000
202 1 192.014679 61.742674 192.014679 61.742674 0.000000 0.000000 1.000000 1.000000 1.000000
203 1 220.437375 98.836553 220.437375 98.836553 0.000000 -0.000000 1.000000 1.000000 1.000000
204 1 75.105981 200.695018 75.105981 200.695018 -0.000000 -0.000000 1.000000 1.000000 1.000000
205 1 146.898041 34.533714 146.898041 34.533714 -0.000000 -0.000000 1.000000 1.000000 1.000000
206 1 203.215863 108.863034 203.215863 108.863034 -0.000000 -0.000000 1.000000 1.000000 1.000000
207 1 101.987458 196.794519 101.987458 196.794519 -0.000000 -0.000000 1.000000 1.000000 1.000000
208 1 117.483714 121.454951 117.483714 121.454951 0.000000 -0.000000 1.000000 1.000000 1.000000
209 1 182.176155 78.197180 182.176155 78.197180 -0.000000 -0.000000 1.000000 1.000000 1.000000
210 1 112.523405 234.205986 112.523405 -3.810140 0.000000 0.000000 1.000000 1.000000 1.000000
211 1 206.189491 161.129431 206.189491 161.129431 -0.000000 0.000000 1.000000 1.000000 1.000000
212 1 12.303543 167.389044 12.303543 167.389044 -0.000000 0.000000 1.000000 1.000000 1.000000
213 1 154.177267 136.021791 154.177267 136.021791 0.000000 -0.000000 1.000000 1.000000 1.000000
214 1 231.474249 125.267691 231.474249 125.267691 -0.000000 -0.000000 1.000000 1.000000 1.000000
215 1 181.476518 83.368447 181.476518 83.368447 0.000000 0.000000 1.000000 1.000000 1.000000
216 1 72.776469 114.594141 72.776469 114.594141 -0.000000 -0.000000 1.000000 1.000000 1.000000
217 1 78.469079 125.379164 78.469079 125.379164 -0.000000 -0.000000 1.000000 1.000000 1.000000
218 1 197.564385 88.296118 197.564385 88.296118 -0.000000 0.000000 1.000000 1.000000 1.000000
219 1 43.509662 144.719937 43.509662 144.719937 0.000000 -0.000000 1.000000 1.000000 1.000000
220 1 43.344845 152.195162 43.344845 152.195162 0.000000 0.000000 1.000000 1.000000 1.000000
221 1 35.589639 236.281396 35.589639 -1.734730 0.000000 -0.000000 1.000000 1.000000 1.000000
222 1 108.326553 17.842712 108.326553 17.842712 0.000000 0.000000 1.000000 1.000000 1.000000
223 1 165.705524 77.714842 165.705524 77.714842 0.000000 -0.000000 1.000000 1.000000 1.000000
224 1 181.787554 208.490919 181.787554 208.490919 0.000000 0.000000 1.000000 1.000000 1.000000
225 1 152.148699 167.947298 152.148699 167.947298 -0.000000 0.000000 1.000000 1.000000 1.000000
226 1 175.196816 16.167021 175.196816 16.167021 -0.000000 0.000000 1.000000 1.000000 1.000000
227 1 153.441145 87.400387 153.441145 87.400387 -0.000000 0.000000 1.000000 1.000000 1.000000
228 1 224.736341 45.375596 -13.279785 45.375596 0.000000 0.000000 1.000000 1.000000 1.000000
229 1 118.836878 82.121702 118.836878 82.121702 -0.000000 0.000000 1.000000 1.000000 1.000000
230 1 84.814788 203.779190 84.814788 203.779190 -0.000000 0.000000 1.000000 1.000000 1.000000
231 1 212.248298 227.667720 212.248298 227.667720 -0.000000 0.000000 1.000000 1.000000 1.000000
232 1 88.425957 28.924651 88.425957 28.924651 -0.000000 0.000000 1.000000 1.000000 1.000000
233 1 18.851882 133.525289 18.851882 133.525289 -0.000000 0.000000 1.000000 1.000000 1.000000
234 1 101.131002 122.024878 101.131002 122.024878 0.000000 0.000000 1.000000 1.000000 1.000000
235 1 92.528779 79.639812 92.528779 79.639812 0.000000 -0.000000 1.000000 1.000000 1.000000
236 1 22.834296 159.497499 22.834296 159.497499 -0.000000 0.000000 1.000000 1.000000 1.000000
237 1 37.457778 186.592997 37.457778 186.592997 -0.000000 -0.000000 1.000000 1.000000 1.000000
238 1 208.039163 105.339363 208.039163 105.339363 0.000000 -0.000000 1.000000 1.000000 1.000000
239 1 68.388829 175.131770 68.388829 175.131770 -0.000000 -0.000000 1.000000 1.000000 1.000000
240 1 53.361122 234.137482 53.361122 -3.878644 0.000000 -0.000000 1.000000 1.000000 1.000000
241 1 135.527759 150.668059 135.527759 150.668059 -0.000000 -0.000000 1.000000 1.000000 1.000000
242 1 189.900524 234.113446 189.900524 234.113446 -0.000000 -0.000000 1.000000 1.000000 1.000000
243 1 84.601151 236.501394 84.601151 236.501394 -0.000000 -0.000000 1.000000 1.000000 1.000000
244 1 184.289764 101.041882 184.289764 101.041882 0.000000 0.000000 1.000000 1.000000 1.000000
245 1 69.503958 6.839070 69.503958 6.839070 -0.000000 0.000000 1.000000 1.000000 1.000000
246 1 119.389786 222.032790 119.389786 222.032790 0.000000 -0.000000 1.000000 1.000000 1.000000
247 1 20.401864 193.538097 20.401864 193.538097 -0.000000 -0.000000 1.000000 1.000000 1.000000
248 1 119.922926 13.018942 119.922926 251.035068 -0.000000 0.000000 1.000000 1.000000 1.000000
249 1 152.201706 144.293703 152.201706 144.293703 -0.000000 0.000000 1.000000 1.000000 1.000000
250 1 142.825749 200.912535 142.825749 200.912535 0.000000 0.000000 1.000000 1.000000 1.000000
251 1 5.380478 84.241526 5.380478 84.241526 0.000000 0.000000 1.000000 1.000000 1.000000
252 1 214.068199 65.335605 214.068199 65.335605 0.000000 -0.000000 1.000000 1.000000 1.000000
253 1 37.259203 218.195569 37.259203 218.195569 -0.000000 -0.000000 1.000000 1.000000 1.000000
254 1 35.054439 217.268505 35.054439 217.268505 -0.000000 -0.000000 1.000000 1.000000 1.000000
255 1 73.456264 168.020892 73.456264 168.020892 -0.000000 -0.000000 1.000000 1.000000 1.000000
256 1 92.913656 90.171618 92.913656 90.171618 -0.000000 -0.000000 1.000000 1.000000 1.000000
257 1 200.264586 74.407001 200.264586 74.407001 -0.000000 0.000000 1.000000 1.000000 1.000000
258 1 148.839892 180.813386 148.839892 180.813386 0.000000 0.000000 1.000000 1.000000 1.000000
259 1 170.586873 30.261044 170.586873 30.261044 -0.000000 -0.000000 1.000000 1.000000 1.000000
260 1 57.847836 16.921146 57.847836 16.921146 0.000000 0.000000 1.000000 1.000000 1.000000
261 1 73.684964 198.808148 73.684964 198.808148 -0.000000 -0.000000 1.000000 1.000000 1.000000
262 1 97.046812 43.674755 97.046812 43.674755 -0.000000 0.000000 1.000000 1.000000 1.000000
263 1 118.148806 112.228315 118.148806 112.228315 0.000000 -0.000000 1.000000 1.000000 1.000000
264 1 192.596027 156.207529 192.596027 156.207529 0.000000 0.000000 1.000000 1.000000 1.000000
265 1 148.246988 212.828452 148.246988 -25.187674 0.000000 -0.000000 1.000000 1.000000 1.000000
266 1 182.764247 34.919539 182.764247 34.919539 0.000000 0.000000 1.000000 1.000000 1.000000
267 1 138.135037 229.673261 138.135037 229.673261 -0.000000 0.000000 1.000000 1.000000 1.000000
268 1 59.737164 71.866206 59.737164 71.866206 0.000000 0.000000 1.000000 1.000000 1.000000
269 1 29.257947 46.047251 29.257947 46.047251 -0.000000 0.000000 1.000000 1.000000 1.000000
270 1 230.772289 100.486534 -7.243837 100.486534 -0.000000 0.000000 1.000000 1.000000 1.000000
271 1 165.964301 180.527162 165.964301 180.527162 -0.000000 0.000000 1.000000 1.000000 1.000000
272 1 218.291319 170.935340 218.291319 170.935340 -0.000000 -0.000000 1.000000 1.000000 1.000000
273 1 99.150389 148.993635 99.150389 148.993635 -0.000000 0.000000 1.000000 1.000000 1.000000
274 1 89.685899 140.055392 89.685899 140.055392 0.000000 -0.000000 1.000000 1.000000 1.000000
275 1 142.547270 34.695794 142.547270 34.695794 0.000000 0.000000 1.000000 1.000000 1.000000
276 1 5.488080 50.671303 5.488080 50.671303 -0.000000 0.000000 1.000000 1.000000 1.000000
277 1 233.629231 120.055628 233.629231 120.055628 0.000000 0.000000 1.000000 1.000000 1.000000
278 1 157.710038 210.406711 157.710038 210.406711 0.000000 0.000000 1.000000 1.000000 1.000000
279 1 66.206820 155.454392 66.206820 155.454392 0.000000 -0.000000 1.000000 1.000000 1.000000
280 1 95.627644 65.986553 95.627644 65.986553 0.000000 -0.000000 1.000000 1.000000 1.000000
281 1 158.396732 159.146433 158.396732 159.146433 -0.000000 -0.000000 1.000000 1.000000 1.000000
282 1 108.905068 4.474372 108.905068 242.490498 -0.000000 0.000000 1.000000 1.000000 1.000000
283 1 137.740934 41.813580 137.740934 41.813580 0.000000 0.000000 1.000000 1.000000 1.000000
284 1 106.944525 233.456090 106.944525 233.456090 0.000000 0.000000 1.000000 1.000000 1.000000
285 1 169.861798 1.802394 169.861798 1.802394 0.000000 -0.000000 1.000000 1.000000 1.000000
286 1 40.905321 50.423690 40.905321 50.423690 0.000000 -0.000000 1.000000 1.000000 1.000000
287 1 128.239050 69.014103 128.239050 69.014103 -0.000000 -0.000000 1.000000 1.000000 1.000000
288 1 196.148240 56.379931 196.148240 56.379931 -0.000000 -0.000000 1.000000 1.000000 1.000000
289 1 14.998018 196.691988 14.998018 196.691988 -0.000000 0.000000 1.000000 1.000000 1.000000
290 1 121.034702 124.057519 121.034702 124.057519 -0.000000 0.000000 1.000000 1.000000 1.000000
291 1 37.867152 90.449994 37.867152 90.449994 0.000000 0.000000 1.000000 1.000000 1.000000
292 1 126.883402 209.837722 126.883402 209.837722 -0.000000 0.000000 1.000000 1.000000 1.000000
293 1 41.440540 101.491203 41.440540 101.491203 -0.000000 0.000000 1.000000 1.000000 1.000000
294 1 176.302182 91.711991 176.302182 91.711991 0.000000 -0.000000 1.000000 1.000000 1.000000
295 1 134.765737 172.030695 134.765737 172.030695 -0.000000 -0.000000 1.000000 1.000000 1.000000
296 1 228.999551 174.465161 228.999551 174.465161 0.000000 0.000000 1.000000 1.000000 1.000000
297 1 104.726811 133.016072 104.726811 133.016072 0.000000 -0.000000 1.000000 1.000000 1.000000
298 1 227.491333 4.786297 227.491333 242.802423 0.000000 0.000000 1.000000 1.000000 1.000000
299 1 6.669038 216.186927 6.669038 216.186927 0.000000 0.000000 1.000000 1.000000 1.000000
300 1 145.380552 97.609335 145.380552 97.609335 -0.000000 0.000000 1.000000 1.000000 1.000000
301 1 198.092154 215.301514 198.092154 215.301514 0.000000 0.000000 1.000000 1.000000 1.000000
302 1 151.086174 31.025617 151.086174 31.025617 0.000000 -0.000000 1.000000 1.000000 1.000000
303 1 200.308035 49.993368 200.308035 49.993368 0.000000 0.000000 1.000000 1.000000 1.000000
304 1 153.876362 236.169180 153.876362 -1.846946 0.000000 0.000000 1.000000 1.000000 1.000000
305 1 96.758112 205.299009 96.758112 205.299009 -0.000000 0.000000 1.000000 1.000000 1.000000
306 1 151.013446 36.047025 151.013446 36.047025 0.000000 -0.000000 1.000000 1.000000 1.000000
307 1 61.457146 63.240184 61.457146 63.240184 0.000000 0.000000 1.000000 1.000000 1.000000
308 1 154.886446 127.500700 154.886446 127.500700 -0.000000 -0.000000 1.000000 1.000000 1.000000
309 1 31.976387 141.243395 31.976387 141.243395 0.000000 0.000000 1.000000 1.000000 1.000000
310 1 25.301549 68.231170 25.301549 68.231170 -0.000000 -0.000000 1.000000 1.000000 1.000000
311 1 141.567277 85.700085 141.567277 85.700085 0.000000 0.000000 1.000000 1.000000 1.000000
312 1 19.570513 45.945152 19.570513 45.945152 -0.000000 0.000000 1.000000 1.000000 1.000000
313 1 208.836123 63.348947 208.836123 63.348947 0.000000 0.000000 1.000000 1.000000 1.000000
314 1 75.857560 213.551281 75.857560 213.551281 0.000000 -0.000000 1.000000 1.000000 1.000000
315 1 116.594794 79.984601 116.594794 79.984601 -0.000000 -0.000000 1.000000 1.000000 1.000000
316 1 148.091748 55.818587 148.091748 55.818587 -0.000000 0.000000 1.000000 1.000000 1.000000