ITEM: TIMESTEP
1600.000000
ITEM: NUMBER OF ATOMS
5000
ITEM: BOX BOUNDS xy xz yz
0 277.118152 0
0 277.118152 0
0 2 0
ITEM: ATOMS id type x y xu yu vx vy radius m z
0 1 136.235728 48.680289 136.235728 48.680289 0.000000 -0.000000 1.000000 1.000000 1.000000
1 1 248.888501 22.996711 248.888501 22.996711 -0.000000 -0.000000 1.000000 1.000000 1.000000
2 1 104.278062 240.946707 104.278062 240.946707 0.000000 -0.000000 1.000000 1.000000 1.000000
3 1 5.874168 28.336933 5.874168 28.336933 0.000000 -0.000000 1.000000 1.000000 1.000000
4 1 89.533516 7.319061 89.533516 284.437213 -0.000000 -0.000000 1.000000 1.000000 1.000000
5 1 84.295058 225.868172 84.295058 225.868172 -0.000000 -0.000000 1.000000 1.000000 1.000000
6 1 131.853428 154.872816 131.853428 154.872816 0.000000 0.000000 1.000000 1.000000 1.000000
7 1 149.610958 95.794079 149.610958 95.794079 0.000000 -0.000000 1.000000 1.000000 1.000000
8 1 25.095905 18.195224 25.095905 18.195224 -0.000000 -0.000000 1.000000 1.000000 1.000000
9 1 193.399628 123.101668 193.399628 123.101668 -0.000000 0.000000 1.000000 1.000000 1.000000
10 1 131.569877 168.245365 131.569877 168.245365 0.000000 0.000000 1.000000 1.000000 1.000000
11 1 252.418793 150.950453 252.418793 150.950453 -0.000000 -0.000000 1.000000 1.000000 1.000000
12 1 242.112652 140.926898 242.112652 140.926898 -0.000000 0.000000 1.000000 1.000000 1.000000
13 1 109.181837 114.990435 109.181837 114.990435 0.000000 -0.000000 1.000000 1.000000 1.000000
14 1 247.581449 145.810541 247.581449 145.810541 -0.000000 -0.000000 1.000000 1.000000 1.000000
15 1 104.806935 10.859589 104.806935 10.859589 0.000000 0.000000 1.000000 1.000000 1.000000
16 1 3.057418 143.202809 280.175570 143.202809 -0.000000 -0.000000 1.000000 1.000000 1.000000
17 1 89.743675 215.792551 89.743675 215.792551 0.000000 -0.000000 1.000000 1.000000 1.000000
18 1 267.172738 158.066053 267.172738 158.066053 0.000000 0.000000 1.000000 1.000000 1.000000
19 1 131.280312 104.560110 131.280312 104.560110 -0.000000 0.000000 1.000000 1.000000 1.000000
20 1 164.340097 137.172494 164.340097 137.172494 0.000000 0.000000 1.000000 1.000000 1.000000
21 1 84.792422 122.268129 84.792422 122.268129 -0.000000 0.000000 1.000000 1.000000 1.000000
22 1 263.692486 266.873136 -13.425666 -10.245016 0.000000 0.000000 1.000000 1.000000 1.000000
23 1 46.813664 106.604047 46.813664 106.604047 0.000000 0.000000 1.000000 1.000000 1.000000
24 1 194.397357 57.598555 194.397357 57.598555 -0.000000 0.000000 1.000000 1.000000 1.000000
25 1 168.366609 10.130328 168.366609 287.248480 0.000000 0.000000 1.000000 1.000000 1.000000
26 1 143.386773 243.949410 143.386773 243.949410 0.000000 0.000000 1.000000 1.000000 1.000000
27 1 9.489734 239.281583 9.489734 239.281583 0.000000 0.000000 1.000000 1.000000 1.000000
28 1 106.885325 241.358947 106.885325 241.358947 0.000000 0.000000 1.000000 1.000000 1.000000
29 1 113.541185 1.071441 113.541185 278.189593 -0.000000 0.000000 1.000000 1.000000 1.000000
30 1 34.797963 269.125030 34.797963 269.125030 -0.000000 -0.000000 1.000000 1.000000 1.000000
31 1 196.005217 194.382770 196.005217 194.382770 -0.000000 -0.000000 1.000000 1.000000 1.000000
32 1 7.525566 237.547830 7.525566 237.547830 0.000000 -0.000000 1.000000 1.000000 1.000000
33 1 128.333467 173.552398 128.333467 173.552398 -0.000000 0.000000 1.000000 1.000000 1.000000
34 1 44.002327 5.532118 44.002327 282.650270 -0.000000 0.000000 1.000000 1.000000 1.000000
35 1 254.601765 239.764371 254.601765 239.764371 0.000000 -0.000000 1.000000 1.000000 1.000000
36 1 191.868913 95.052442 191.868913 95.052442 0.000000 0.000000 1.000000 1.000000 1.000000
37 1 93.670313 21.311329 93.670313 21.311329 -0.000000 -0.000000 1.000000 1.000000 1.000000
38 1 213.235916 84.352159 213.235916 84.352159 -0.000000 0.000000 1.000000 1.000000 1.000000
39 1 97.088912 0.429377 97.088912 0.429377 0.000001 -0.000000 1.000000 1.000000 1.000000
40 1 247.518105 246.347511 247.518105 246.347511 -0.000000 -0.000000 1.000000 1.000000 1.000000
41 1 204.202861 138.593744 204.202861 138.593744 0.000000 0.000000 1.000000 1.000000 1.000000
42 1 165.311881 229.593320 165.311881 229.593320 -0.000000 -0.000000 1.000000 1.000000 1.000000
43 1 17.429065 231.094925 17.429065 231.094925 -0.000000 -0.000000 1.000000 1.000000 1.000000
44 1 76.441930 156.988324 76.441930 156.988324 0.000000 -0.000000 1.000000 1.000000 1.000000
45 1 249.856450 53.782367 249.856450 53.782367 0.000000 0.000000 1.000000 1.000000 1.000000
46 1 257.087984 111.771548 257.087984 111.771548 0.000000 0.000000 1.000000 1.000000 1.000000
47 1 180.194644 104.160164 180.194644 104.160164 -0.000000 -0.000000 1.000000 1.000000 1.000000
48 1 65.036468 38.991314 65.036468 38.991314 -0.000000 0.000000 1.000000 1.000000 1.000000
49 1 185.328527 241.202386 185.328527 241.202386 -0.000000 -0.000000 1.000000 1.000000 1.000000
50 1 234.000545 52.967747 234.000545 52.967747 0.000000 0.000000 1.000000 1.000000 1.000000
51 1 258.165251 216.230881 258.165251 216.230881 -0.000000 0.000000 1.000000 1.000000 1.000000
52 1 81.344800 190.739031 81.344800 190.739031 0.000000 0.000000 1.000000 1.000000 1.000000
53 1 255.032699 183.474091 255.032699 183.474091 -0.000000 -0.000000 1.000000 1.000000 1.000000
54 1 48.822214 131.783633 48.822214 131.783633 0.000000 -0.000000 1.000000 1.000000 1.000000
55 1 55.311240 15.481205 55.311240 15.481205 0.000000 -0.000000 1.000000 1.000000 1.000000
56 1 252.470598 90.407278 252.470598 90.407278 -0.000000 0.000000 1.000000 1.000000 1.000000
57 1 136.098274 110.610931 136.098274 110.610931 -0.000000 0.000000 1.000000 1.000000 1.000000
58 1 15.324703 201.013650 15.324703 201.013650 -0.000000 -0.000000 1.000000 1.000000 1.000000
59 1 24.806168 171.917960 24.806168 171.917960 -0.000000 -0.000000 1.000000 1.000000 1.000000
60 1 147.882800 90.812741 147.882800 90.812741 -0.000000 -0.000000 1.000000 1.000000 1.000000
61 1 3.911995 55.550079 281.030147 55.550079 -0.000000 0.000000 1.000000 1.000000 1.000000
62 1 231.732214 203.960734 231.732214 203.960734 -0.000000 0.000000 1.000000 1.000000 1.000000
63 1 106.831906 233.442186 106.831906 233.442186 -0.000000 -0.000000 1.000000 1.000000 1.000000
64 1 122.443094 169.724123 122.443094 169.724123 0.000000 -0.000000 1.000000 1.000000 1.000000
65 1 113.171241 121.426671 113.171241 121.426671 -0.000000 -0.000000 1.000000 1.000000 1.000000
66 1 115.347985 47.848703 115.347985 47.848703 0.000000 -0.000000 1.000000 1.000000 1.000000
67 1 95.764140 109.676123 95.764140 109.676123 0.000000 0.000000 1.000000 1.000000 1.000000
68 1 193.175875 270.912049 193.175875 -6.206103 0.000000 0.000000 1.000000 1.000000 1.000000
69 1 10.871509 202.737014 10.871509 202.737014 -0.000000 0.000000 1.000000 1.000000 1.000000
70 1 232.289924 261.176857 232.289924 261.176857 0.000000 0.000000 1.000000 1.000000 1.000000
71 1 188.688869 47.714770 188.688869 47.714770 -0.000000 0.000000 1.000000 1.000000 1.000000
72 1 180.608239 230.309249 180.608239 230.309249 0.000000 -0.000000 1.000000 1.000000 1.000000
73 1 31.666818 218.710813 31.666818 218.710813 0.000000 0.000000 1.000000 1.000000 1.000000
74 1 46.590273 148.951053 46.590273 148.951053 0.000000 0.000000 1.000000 1.000000 1.000000
75 1 66.514961 232.791165 66.514961 232.791165 0.000000 0.000000 1.000000 1.000000 1.000000
76 1 1.330884 247.482905 278.449036 247.482905 -0.000000 -0.000000 1.000000 1.000000 1.000000
77 1 137.727285 266.970386 137.727285 -10.147766 0.000000 0.000000 1.000000 1.000000 1.000000
78 1 21.314941 173.930727 21.314941 173.930727 -0.000000 -0.000000 1.000000 1.000000 1.000000
79 1 57.476318 6.567533 57.476318 283.685685 0.000000 0.000000 1.000000 1.000000 1.000000
80 1 25.455814 258.986722 25.455814 258.986722 0.000000 -0.000000 1.000000 1.000000 1.000000
81 1 60.627241 4.666404 60.627241 4.666404 0.000000 -0.000000 1.000000 1.000000 1.000000
82 1 190.226926 255.249982 190.226926 255.249982 0.000001 -0.000000 1.000000 1.000000 1.000000
83 1 174.168282 203.741212 174.168282 203.741212 0.000000 0.000000 1.000000 1.000000 1.000000
84 1 261.393820 188.224080 261.393820 188.224080 0.000000 0.000000 1.000000 1.000000 1.000000
85 1 199.143442 150.592204 199.143442 150.592204 -0.000000 -0.000000 1.000000 1.000000 1.000000
86 1 220.916800 22.092386 220.916800 22.092386 -0.000000 0.000000 1.000000 1.000000 1.000000
87 1 265.036933 273.288734 265.036933 -3.829418 0.000000 0.000000 1.000000 1.000000 1.000000
88 1 21.371114 104.729957 21.371114 104.729957 -0.000000 -0.000000 1.000000 1.000000 1.000000
89 1 245.425093 61.825504 245.425093 61.825504 -0.000000 0.000000 1.000000 1.000000 1.000000
90 1 107.906431 260.252059 107.906431 260.252059 -0.000000 -0.000000 1.000000 1.000000 1.000000
91 1 75.261750 222.197551 75.261750 222.197551 -0.000000 -0.000000 1.000000 1.000000 1.000000
92 1 66.657991 262.234077 66.657991 262.234077 -0.000000 0.000000 1.000000 1.000000 1.000000
93 1 102.769657 167.992276 102.769657 167.992276 0.000000 0.000000 1.000000 1.000000 1.000000
94 1 94.547186 166.160832 94.547186 166.160832 -0.000000 -0.000000 1.000000 1.000000 1.000000
95 1 99.199213 118.646842 99.199213 118.646842 -0.000000 -0.000000 1.000000 1.000000 1.000000
96 1 37.633880 56.199493 37.633880 56.199493 -0.000000 -0.000000 1.000000 1.000000 1.000000
97 1 199.950269 207.194176 199.950269 207.194176 0.000000 0.000000 1.000000 1.000000 1.000000
98 1 222.517994 270.489720 222.517994 270.489720 0.000000 0.000000 1.000000 1.000000 1.000000
99 1 262.176830 244.707829 262.176830 244.707829 -0.000000 -0.000000 1.000000 1.000000 1.000000
100 1 116.665081 219.029822 116.665081 219.029822 0.000000 -0.000000 1.000000 1.000000 1.000000
101 1 21.668947 140.825655 21.668947 140.825655 -0.000000 -0.000000 1.000000 1.000000 1.000000
102 1 156.603908 32.525382 156.603908 32.525382 0.000000 -0.000000 1.000000 1.000000 1.000000
103 1 244.711335 241.049121 244.711335 241.049121 -0.000000 -0.000000 1.000000 1.000000 1.000000
104 1 134.430521 149.533711 134.430521 149.533711 -0.000000 -0.000000 1.000000 1.000000 1.000000
105 1 25.579053 141.005891 302.697205 141.005891 0.000000 -0.000000 1.000000 1.000000 1.000000
106 1 150.836260 216.282628 150.836260 216.282628 0.000000 0.000000 1.000000 1.000000 1.000000
107 1 221.269404 205.048784 221.269404 205.048784 -0.000000 -0.000000 1.000000 1.000000 1.000000
108 1 158.047753 275.811580 158.047753 275.811580 -0.000000 0.000000 1.000000 1.000000 1.000000
109 1 218.076530 144.316318 218.076530 144.316318 0.000000 0.000000 1.000000 1.000000 1.000000
110 1 189.171424 11.858458 189.171424 11.858458 -0.000000 0.000000 1.000000 1.000000 1.000000
111 1 126.174819 180.995107 126.174819 180.995107 -0.000000 -0.000000 1.000000 1.000000 1.000000
112 1 234.617628 206.252846 234.617628 206.252846 -0.000000 0.000000 1.000000 1.000000 1.000000
113 1 265.032738 120.787688 265.032738 120.787688 0.000000 -0.000000 1.000000 1.000000 1.000000
114 1 181.942327 144.984231 181.942327 144.984231 0.000000 0.000000 1.000000 1.000000 1.000000
115 1 158.049795 181.900190 158.049795 181.900190 0.000000 -0.000000 1.000000 1.000000 1.000000
116 1 74.784723 224.370164 74.784723 224.370164 -0.000000 0.000000 1.000000 1.000000 1.000000
117 1 125.161299 208.701608 125.161299 208.701608 0.000000 -0.000000 1.000000 1.000000 1.000000
118 1 234.434861 182.638480 234.434861 182.638480 0.000000 -0.000000 1.000000 1.000000 1.000000
119 1 98.522982 214.909687 98.522982 214.909687 -0.000000 0.000000 1.000000 1.000000 1.000000
120 1 257.345863 198.127971 257.345863 198.127971 -0.000000 -0.000000 1.000000 1.000000 1.000000
121 1 219.607007 158.358314 219.607007 158.358314 -0.000000 0.000000 1.000000 1.000000 1.000000
122 1 258.659733 267.689786 -18.458419 -9.428366 -0.000000 0.000000 1.000000 1.000000 1.000000
123 1 21.335295 264.636797 21.335295 264.636797 0.000000 -0.000000 1.000000 1.000000 1.000000
124 1 59.292058 234.464167 59.292058 234.464167 -0.000000 -0.000000 1.000000 1.000000 1.000000
125 1 9.597574 139.660318 286.715726 139.660318 0.000000 0.000000 1.000000 1.000000 1.000000
126 1 179.435510 164.660539 179.435510 164.660539 -0.000000 0.000000 1.000000 1.000000 1.000000
127 1 210.308773 91.988069 210.308773 91.988069 -0.000000 -0.000000 1.000000 1.000000 1.000000
128 1 158.421335 245.994961 158.421335 245.994961 0.000000 0.000000 1.000000 1.000000 1.000000
129 1 229.610301 209.253369 229.610301 209.253369 0.000000 0.000000 1.000000 1.000000 1.000000
130 1 164.357810 236.358415 164.357810 236.358415 0.000000 0.000000 1.000000 1.000000 1.000000
131 1 124.308849 221.167634 124.308849 221.167634 -0.000000 -0.000000 1.000000 1.000000 1.000000
132 1 227.381784 189.525979 227.381784 189.525979 -0.000000 0.000000 1.000000 1.000000 1.000000
133 1 53.548750 42.937980 53.548750 42.937980 0.000000 0.000000 1.000000 1.000000 1.000000
134 1 204.736885 210.441767 204.736885 210.441767 0.000000 -0.000000 1.000000 1.000000 1.000000
135 1 159.873611 174.501545 159.873611 174.501545 -0.000000 0.000000 1.000000 1.000000 1.000000
136 1 162.246602 163.530477 162.246602 163.530477 -0.000000 0.000000 1.000000 1.000000 1.000000
137 1 11.469657 225.658365 11.469657 225.658365 0.000000 0.000000 1.000000 1.000000 1.000000
138 1 11.667873 240.297440 11.667873 240.297440 0.000000 0.000000 1.000000 1.000000 1.000000
139 1 205.767804 159.217299 205.767804 159.217299 0.000000 0.000000 1.000000 1.000000 1.000000
140 1 45.206793 62.377873 45.206793 62.377873 0.000000 -0.000000 1.000000 1.000000 1.000000
141 1 129.386605 231.978277 129.386605 231.978277 -0.000000 -0.000000 1.000000 1.000000 1.000000
142 1 143.718493 241.013918 143.718493 241.013918 0.000000 -0.000000 1.000000 1.000000 1.000000
143 1 96.813164 152.732821 96.813164 152.732821 -0.000000 0.000000 1.000000 1.000000 1.000000
144 1 255.826976 74.723258 255.826976 74.723258 0.000000 0.000000 1.000000 1.000000 1.000000
145 1 179.077130 108.560879 179.077130 108.560879 -0.000000 0.000000 1.000000 1.000000 1.000000
146 1 79.092781 109.370163 79.092781 109.370163 -0.000000 -0.000000 1.000000 1.000000 1.000000
147 1 140.545305 134.936557 140.545305 134.936557 0.000000 0.000000 1.000000 1.000000 1.000000
148 1 26.329016 72.628840 26.329016 72.628840 0.000000 -0.000000 1.000000 1.000000 1.000000
149 1 166.013121 51.491850 166.013121 51.491850 -0.000000 -0.000000 1.000000 1.000000 1.000000
150 1 177.705242 133.310083 177.705242 133.310083 0.000000 -0.000000 1.000000 1.000000 1.000000
151 1 150.512697 88.565675 150.512697 88.565675 0.000000 0.000000 1.000000 1.000000 1.000000
152 1 254.819371 129.098571 254.819371 129.098571 -0.000000 0.000000 1.000000 1.000000 1.000000
153 1 32.100375 167.495583 32.100375 167.495583 0.000000 -0.000000 1.000000 1.000000 1.000000
154 1 165.128812 215.869777 165.128812 215.869777 0.000000 0.000000 1.000000 1.000000 1.000000
155 1 122.740790 13.186521 122.740790 13.186521 0.000000 0.000000 1.000000 1.000000 1.000000
156 1 275.266522 29.551078 -1.851630 29.551078 0.000000 -0.000000 1.000000 1.000000 1.000000
157 1 257.944056 44.230252 257.944056 44.230252 -0.000000 0.000000 1.000000 1.000000 1.000000
158 1 232.615507 122.363369 232.615507 122.363369 0.000000 0.000000 1.000000 1.000000 1.000000
159 1 240.557932 48.762338 240.557932 48.762338 0.000000 0.000000 1.000000 1.000000 1.000000
160 1 185.747649 117.502765 185.747649 117.502765 -0.000000 0.000000 1.000000 1.000000 1.000000
161 1 214.553316 99.951324 214.553316 99.951324 0.000000 -0.000000 1.000000 1.000000 1.000000
162 1 96.173283 215.128856 96.173283 215.128856 0.000000 -0.000000 1.000000 1.000000 1.000000
163 1 97.662030 223.431762 97.662030 223.431762 0.000000 -0.000000 1.000000 1.000000 1.000000
164 1 11.134864 155.571242 11.134864 155.571242 0.000000 0.000000 1.000000 1.000000 1.000000
165 1 68.090127 187.037173 68.090127 187.037173 0.000000 0.000000 1.000000 1.000000 1.000000
166 1 13.843752 173.644517 13.843752 173.644517 -0.000000 0.000000 1.000000 1.000000 1.000000
167 1 36.556412 68.900592 36.556412 68.900592 0.000000 -0.000000 1.000000 1.000000 1.000000
168 1 134.042646 34.878857 134.042646 34.878857 -0.000000 -0.000000 1.000000 1.000000 1.000000
169 1 227.337380 187.410936 227.337380 187.410936 0.000000 -0.000000 1.000000 1.000000 1.000000
170 1 107.941680 239.417551 107.941680 239.417551 0.000000 -0.000000 1.000000 1.000000 1.000000
171 1 135.868176 153.468560 135.868176 153.468560 -0.000000 0.000000 1.000000 1.000000 1.000000
172 1 253.118626 131.545749 253.118626 131.545749 0.000000 0.000000 1.000000 1.000000 1.000000
173 1 39.628403 197.047719 39.628403 197.047719 0.000000 -0.000000 1.000000 1.000000 1.000000
174 1 43.790521 10.257561 43.790521 10.257561 0.000000 -0.000000 1.000000 1.000000 1.000000
175 1 8.021238 256.133486 285.139390 256.133486 0.000000 -0.000000 1.000000 1.000000 1.000000
176 1 192.857981 51.641379 192.857981 51.641379 0.000000 -0.000000 1.000000 1.000000 1.000000
177 1 206.454175 18.571673 206.454175 18.571673 -0.000000 -0.000000 1.000000 1.000000 1.000000
178 1 19.510626 63.826551 19.510626 63.826551 -0.000000 0.000000 1.000000 1.000000 1.000000
179 1 113.977001 199.938822 113.977001 199.938822 -0.000000 0.000000 1.000000 1.000000 1.000000
180 1 139.568286 84.463973 139.568286 84.463973 -0.000000 -0.000000 1.000000 1.000000 1.000000
181 1 193.906910 37.103962 193.906910 37.103962 0.000000 0.000000 1.000000 1.000000 1.000000
182 1 233.131982 180.848727 233.131982 180.848727 -0.000000 -0.000000 1.000000 1.000000 1.000000
183 1 154.855739 142.228286 154.855739 142.228286 -0.000000 0.000000 1.000000 1.000000 1.000000
184 1 87.638938 51.473885 87.638938 51.473885 -0.000000 -0.000000 1.000000 1.000000 1.000000
185 1 115.114828 170.690778 115.114828 170.690778 -0.000000 0.000000 1.000000 1.000000 1.000000
186 1 229.853258 147.893938 229.853258 147.893938 0.000000 0.000000 1.000000 1.000000 1.000000
187 1 116.745630 12.211214 116.745630 12.211214 0.000000 0.000000 1.000000 1.000000 1.000000
188 1 94.654507 65.064992 94.654507 65.064992 -0.000000 -0.000000 1.000000 1.000000 1.000000
189 1 4.600710 83.134948 4.600710 83.134948 -0.000000 0.000000 1.000000 1.000000 1.000000
190 1 194.788737 231.077593 194.788737 231.077593 -0.000000 -0.000000 1.000000 1.000000 1.000000
191 1 181.357145 107.079710 181.357145 107.079710 0.000000 0.000000 1.000000 1.000000 1.000000
192 1 16.077449 66.755773 16.077449 66.755773 0.000000 0.000000 1.000000 1.000000 1.000000
193 1 96.957345 39.667485 96.957345 39.667485 -0.000000 -0.000000 1.000000 1.000000 1.000000
194 1 220.543268 246.198655 220.543268 246.198655 0.000000 -0.000000 1.000000 1.000000 1.000000
195 1 31.032806 198.069615 31.032806 198.069615 -0.000000 -0.000000 1.000000 1.000000 1.000000
196 1 253.260287 62.451338 253.260287 62.451338 0.000000 -0.000000 1.000000 1.000000 1.000000
197 1 24.086252 231.721105 24.086252 231.721105 -0.000000 -0.000000 1.000000 1.000000 1.000000
198 1 75.206133 251.718402 75.206133 251.718402 -0.000000 0.000000 1.000000 1.000000 1.000000
199 1 144.344076 163.191701 144.344076 163.191701 -0.000000 0.000000 1.000000 1.000000 1.000000
200 1 145.511325 110.472038 145.511325 110.472038 -0.000000 -0.000000 1.000000 1.000000 1.000000
201 1 213.174746 34.926433 213.174746 34.926433 -0.000000 0.000000 1.000000 1.000000 1.000000
202 1 224.543717 245.662547 224.543717 245.662547 0.000000 -0.000000 1.000000 1.000000 1.000000
203 1 20.206982 193.779541 20.206982 193.779541 -0.000000 0.000000 1.000000 1.000000 1.000000
204 1 145.679325 202.507089 145.679325 202.507089 0.000000 -0.000000 1.000000 1.000000 1.000000
205 1 61.036200 161.972352 61.036200 161.972352 -0.000000 0.000000 1.000000 1.000000 1.000000
206 1 153.443569 76.319993 153.443569 76.319993 -0.000000 -0.000000 1.000000 1.000000 1.000000
207 1 205.444075 162.120874 205.444075 162.120874 -0.000000 -0.000000 1.000000 1.000000 1.000000
208 1 122.276873 178.137122 122.276873 178.137122 -0.000000 0.000000 1.000000 1.000000 1.000000
209 1 37.387668 177.634919 37.387668 177.634919 -0.000000 -0.000000 1.000000 1.000000 1.000000
210 1 95.995884 75.777238 95.995884 75.777238 0.000000 -0.000000 1.000000 1.000000 1.000000
211 1 125.147715 176.397003 125.147715 176.397003 -0.000000 0.000000 1.000000 1.000000 1.000000
212 1 155.848366 269.785694 155.848366 269.785694 -0.000000 0.000000 1.000000 1.000000 1.000000
213 1 250.298481 144.970179 250.298481 144.970179 -0.000000 -0.000000 1.000000 1.000000 1.000000
214 1 113.602356 136.086308 113.602356 136.086308 -0.000000 0.000000 1.000000 1.000000 1.000000
215 1 181.522219 85.661956 181.522219 85.661956 -0.000000 0.000000 1.000000 1.000000 1.000000
216 1 222.446760 157.174650 222.446760 157.174650 -0.000000 0.000000 1.000000 1.000000 1.000000
217 1 126.732214 195.752092 126.732214 195.752092 -0.000000 0.000000 1.000000 1.000000 1.000000
218 1 137.437218 32.168464 137.437218 32.168464 0.000000 -0.000000 1.000000 1.000000 1.000000
219 1 85.921018 173.373928 85.921018 173.373928 0.000000 -0.000000 1.000000 1.000000 1.000000
220 1 251.707037 19.792158 251.707037 19.792158 -0.000000 0.000000 1.000000 1.000000 1.000000
221 1 72.107673 207.841604 72.107673 207.841604 -0.000000 0.000000 1.000000 1.000000 1.000000
222 1 112.346467 220.479594 112.346467 220.479594 -0.000000 -0.000000 1.000000 1.000000 1.000000
223 1 129.927919 217.850054 129.927919 217.850054 0.000000 0.000000 1.000000 1.000000 1.000000
224 1 204.016046 21.592503 204.016046 298.710655 -0.000000 0.000000 1.000000 1.000000 1.000000
225 1 264.300359 216.322218 264.300359 216.322218 0.000000 0.000000 1.000000 1.000000 1.000000
226 1 266.035763 63.126355 -11.082389 63.126355 0.000000 -0.000000 1.000000 1.000000 1.000000
227 1 5.033376 232.908745 282.151528 232.908745 0.000000 -0.000000 1.000000 1.000000 1.000000
228 1 190.627404 89.535082 190.627404 89.535082 -0.000000 0.000000 1.000000 1.000000 1.000000
229 1 239.781680 102.584108 239.781680 102.584108 -0.000000 0.000000 1.000000 1.000000 1.000000
230 1 130.050845 243.645979 130.050845 243.645979 0.000000 -0.000000 1.000000 1.000000 1.000000
231 1 251.500594 171.863346 251.500594 171.863346 -0.000000 -0.000000 1.000000 1.000000 1.000000
232 1 50.760507 221.638132 50.760507 221.638132 -0.000000 -0.000000 1.000000 1.000000 1.000000
233 1 63.036000 179.420481 63.036000 179.420481 0.000000 0.000000 1.000000 1.000000 1.000000
234 1 108.566723 210.444017 108.566723 210.444017 0.000000 -0.000000 1.000000 1.000000 1.000000
235 1 157.547337 91.522609 157.547337 91.522609 -0.000000 0.000000 1.000000 1.000000 1.000000
236 1 193.841715 259.700041 193.841715 259.700041 0.000000 -0.000000 1.000000 1.000000 1.000000
237 1 173.160035 276.408957 173.160035 -0.709195 0.000000 0.000000 1.000000 1.000000 1.000000
238 1 138.939015 113.529513 138.939015 113.529513 -0.000000 0.000000 1.000000 1.000000 1.000000
239 1 56.380381 144.875070 56.380381 144.875070 0.000000 0.000000 1.000000 1.000000 1.000000
240 1 41.862610 32.575260 41.862610 32.575260 -0.000000 -0.000000 1.000000 1.000000 1.000000
241 1 61.927528 231.362189 61.927528 231.362189 -0.000000 0.000000 1.000000 1.000000 1.000000
242 1 119.184063 140.357727 119.184063 140.357727 -0.000000 0.000000 1.000000 1.000000 1.000000
243 1 129.211774 221.585824 129.211774 221.585824 -0.000000 -0.000000 1.000000 1.000000 1.000000
244 1 199.787687 62.721718 199.787687 62.721718 0.000000 -0.000000 1.000000 1.000000 1.000000
245 1 138.762915 253.980587 138.762915 253.980587 -0.000000 -0.000000 1.000000 1.000000 1.000000
246 1 154.304638 222.293929 154.304638 222.293929 0.000000 -0.000000 1.000000 1.000000 1.000000
247 1 213.984480 260.987976 213.984480 260.987976 0.000000 0.000000 1.000000 1.000000 1.000000
248 1 41.596737 167.936421 41.596737 167.936421 0.000000 0.000000 1.000000 1.000000 1.000000
249 1 159.857829 159.827455 159.857829 159.827455 -0.000000 -0.000000 1.000000 1.000000 1.000000
250 1 181.945862 154.693072 181.945862 154.693072 0.000000 -0.000000 1.000000 1.000000 1.000000
251 1 84.545077 269.049455 84.545077 269.049455 -0.000000 -0.000000 1.000000 1.000000 1.000000
252 1 160.960303 90.910053 160.960303 90.910053 0.000000 0.000000 1.000000 1.000000 1.000000
253 1 140.545259 176.659512 140.545259 176.659512 -0.000000 -0.000000 1.000000 1.000000 1.000000
254 1 82.987625 65.856857 82.987625 65.856857 -0.000000 0.000000 1.000000 1.000000 1.000000
255 1 174.379448 232.629500 174.379448 232.629500 -0.000000 0.000000 1.000000 1.000000 1.000000
256 1 21.565624 95.995109 21.565624 95.995109 -0.000000 0.000000 1.000000 1.000000 1.000000
257 1 212.599787 242.283075 212.599787 242.283075 -0.000000 -0.000000 1.000000 1.000000 1.000000
258 1 207.751175 6.119619 207.751175 6.119619 0.000000 -0.000000 1.000000 1.000000 1.000000
259 1 107.738490 198.699800 107.738490 198.699800 0.000000 0.000000 1.000000 1.000000 1.000000
260 1 24.114422 256.805448 24.114422 256.805448 0.000000 -0.000000 1.000000 1.000000 1.000000
261 1 9.677066 9.418656 9.677066 9.418656 0.000000 0.000000 1.000000 1.000000 1.000000
262 1 195.455037 141.717324 195.455037 141.717324 -0.000000 -0.000000 1.000000 1.000000 1.000000
263 1 223.418107 111.408835 223.418107 111.408835 0.000000 0.000000 1.000000 1.000000 1.000000
264 1 40.954760 121.789915 40.954760 121.789915 0.000000 -0.000000 1.000000 1.000000 1.000000
265 1 259.574648 184.503201 -17.543504 184.503201 -0.000000 0.000000 1.000000 1.000000 1.000000
266 1 42.252120 179.292488 42.252120 179.292488 0.000000 0.000000 1.000000 1.000000 1.000000
267 1 156.300586 119.774739 156.300586 119.774739 -0.000000 -0.000000 1.000000 1.000000 1.000000
268 1 133.087982 152.381703 133.087982 152.381703 -0.000000 -0.000000 1.000000 1.000000 1.000000
269 1 107.027076 223.709906 107.027076 223.709906 -0.000000 0.000000 1.000000 1.000000 1.000000
270 1 75.077927 103.530798 75.077927 103.530798 0.000000 0.000000 1.000000 1.000000 1.000000
271 1 139.866461 40.644461 139.866461 40.644461 -0.000000 -0.000000 1.000000 1.000000 1.000000
272 1 216.132046 115.860037 216.132046 115.860037 0.000000 0.000000 1.000000 1.000000 1.000000
273 1 192.691254 71.751485 192.691254 71.751485 -0.000000 -0.000000 1.000000 1.000000 1.000000
274 1 197.539574 132.357446 197.539574 132.357446 0.000000 -0.000000 1.000000 1.000000 1.000000
275 1 171.430015 17.619226 171.430015 17.619226 0.000000 -0.000000 1.000000 1.000000 1.000000
276 1 214.742559 3.975782 214.742559 281.093934 0.000000 0.000000 1.000000 1.000000 1.000000
277 1 121.522851 50.044176 121.522851 50.044176 -0.000000 -0.000000 1.000000 1.000000 1.000000
278 1 10.355502 195.601605 10.355502 195.601605 0.000000 0.000000 1.000000 1.000000 1.000000
279 1 265.340988 228.135530 -11.777164 228.135530 -0.000000 0.000000 1.000000 1.000000 1.000000
280 1 37.538881 124.205190 37.538881 124.205190 -0.000000 0.000000 1.000000 1.000000 1.000000
281 1 234.431399 211.893125 234.431399 211.893125 -0.000000 0.000000 1.000000 1.000000 1.000000
282 1 29.315580 153.694307 29.315580 153.694307 0.000000 0.000000 1.000000 1.000000 1.000000
283 1 69.393585 143.413471 69.393585 143.413471 -0.000000 0.000000 1.000000 1.000000 1.000000
284 1 146.707778 247.018133 146.707778 247.018133 0.000000 0.000000 1.000000 1.000000 1.000000
285 1 29.082393 57.473026 29.082393 57.473026 0.000000 0.000000 1.000000 1.000000 1.000000
286 1 62.038308 38.504101 62.038308 38.504101 0.000000 -0.000000 1.000000 1.000000 1.000000
287 1 151.596082 220.154923 151.596082 220.154923 0.000000 0.000000 1.000000 1.000000 1.000000
288 1 19.014946 112.771987 19.014946 112.771987 -0.000000 -0.000000 1.000000 1.000000 1.000000
289 1 108.793931 112.338588 108.793931 112.338588 -0.000000 -0.000000 1.000000 1.000000 1.000000
290 1 119.145233 30.668798 119.145233 30.668798 -0.000000 -0.000000 1.000000 1.000000 1.000000
291 1 130.243508 240.955421 130.243508 240.955421 0.000000 0.000000 1.000000 1.000000 1.000000
292 1 233.115350 258.248032 233.115350 258.248032 -0.000000 0.000000 1.000000 1.000000 1.000000
293 1 253.557521 198.520524 253.557521 198.520524 0.000000 0.000000 1.000000 1.000000 1.000000
294 1 205.455992 242.863946 205.455992 242.863946 -0.000000 -0.000000 1.000000 1.000000 1.000000
295 1 82.129720 210.456241 82.129720 210.456241 -0.000000 0.000000 1.000000 1.000000 1.000000
296 1 83.145342 180.804170 83.145342 180.804170 0.000000 0.000000 1.000000 1.000000 1.000000
297 1 178.791939 62.930137 178.791939 62.930137 0.000000 -0.000000 1.000000 1.000000 1.000000
298 1 197.724044 230.883502 197.724044 230.883502 -0.000000 0.000000 1.000000 1.000000 1.000000
299 1 212.645263 190.124923 212.645263 190.124923 -0.000000 -0.000000 1.000000 1.000000 1.000000
300 1 244.259183 255.447403 244.259183 255.447403 -0.000000 0.000000 1.000000 1.000000 1.000000
301 1 167.771931 160.160457 167.771931 160.160457 -0.000000 0.000000 1.000000 1.000000 1.000000
302 1 166.361539 127.765016 166.361539 127.765016 0.000000 -0.000000 1.000000 1.000000 1.000000
303 1 75.003262 9.497726 75.003262 9.497726 -0.000000 -0.000000 1.000000 1.000000 1.000000
304 1 158.737535 61.417383 158.737535 61.417383 0.000000 -0.000000 1.000000 1.000000 1.000000
305 1 211.577599 41.990093 211.577599 41.990093 -0.000000 -0.000000 1.000000 1.000000 1.000000
306 1 198.408882 197.498207 198.408882 197.498207 0.000000 -0.000000 1.000000 1.000000 1.000000
307 1 187.651153 157.891272 187.651153 157.891272 0.000000 -0.000000 1.000000 1.000000 1.000000
308 1 170.615456 125.368174 170.615456 125.368174 -0.000000 -0.000000 1.000000 1.000000 1.000000
309 1 72.066443 119.308033 72.066443 119.308033 0.000000 0.000000 1.000000 1.000000 1.000000
310 1 127.106894 231.136353 127.106894 231.136353 0.000000 0.000000 1.000000 1.000000 1.000000
311 1 14.602912 148.747839 14.602912 148.747839 -0.000000 0.000000 1.000000 1.000000 1.000000
312 1 227.133183 170.890613 227.133183 170.890613 -0.000000 0.000000 1.000000 1.000000 1.000000
313 1 47.178745 232.443821 47.178745 232.443821 0.000000 0.000000 1.000000 1.000000 1.000000
314 1 69.607814 176.399380 69.607814 176.399380 -0.000000 0.000000 1.000000 1.000000 1.000000
315 1 169.732724 188.478445 169.732724 188.478445 -0.000000 0.000000 1.000000 1.000000 1.000000