ITEM: TIMESTEP
2200.000000
ITEM: NUMBER OF ATOMS
5000
ITEM: BOX BOUNDS xy xz yz
0 249.157333 0
0 249.157333 0
0 2 0
ITEM: ATOMS id type x y xu yu vx vy radius m z
0 1 196.665246 24.887989 196.665246 24.887989 0.000000 -0.000000 1.000000 1.000000 1.000000
1 1 160.064999 226.819673 160.064999 226.819673 -0.000000 0.000000 1.000000 1.000000 1.000000
2 1 59.581703 161.099703 59.581703 161.099703 0.000000 0.000000 1.000000 1.000000 1.000000
3 1 119.586974 152.597673 119.586974 152.597673 -0.000000 0.000000 1.000000 1.000000 1.000000
4 1 129.373404 134.809141 129.373404 134.809141 -0.000000 -0.000000 1.000000 1.000000 1.000000
5 1 208.362321 162.995028 208.362321 162.995028 -0.000000 -0.000000 1.000000 1.000000 1.000000
6 1 220.115632 116.820167 220.115632 116.820167 0.000000 -0.000000 1.000000 1.000000 1.000000
7 1 100.874237 208.345909 100.874237 208.345909 0.000000 0.000000 1.000000 1.000000 1.000000
8 1 194.130954 55.199917 194.130954 55.199917 0.000000 -0.000000 1.000000 1.000000 1.000000
9 1 85.495776 52.167768 85.495776 52.167768 -0.000000 0.000000 1.000000 1.000000 1.000000
10 1 195.067508 155.984209 195.067508 155.984209 0.000000 -0.000000 1.000000 1.000000 1.000000
11 1 90.791664 221.320110 90.791664 221.320110 -0.000000 0.000000 1.000000 1.000000 1.000000
12 1 199.902529 95.729877 199.902529 95.729877 0.000000 0.000000 1.000000 1.000000 1.000000
13 1 102.609583 40.172555 102.609583 40.172555 -0.000000 0.000000 1.000000 1.000000 1.000000
14 1 29.457975 53.939635 29.457975 53.939635 -0.000000 -0.000000 1.000000 1.000000 1.000000
15 1 166.210863 248.846128 166.210863 -0.311205 -0.000000 -0.000000 1.000000 1.000000 1.000000
16 1 49.490598 2.184000 49.490598 2.184000 0.000000 -0.000000 1.000000 1.000000 1.000000
17 1 217.469449 153.848134 217.469449 153.848134 -0.000000 0.000000 1.000000 1.000000 1.000000
18 1 205.172542 47.880207 205.172542 47.880207 0.000000 -0.000000 1.000000 1.000000 1.000000
19 1 29.727313 211.120931 29.727313 211.120931 0.000000 0.000000 1.000000 1.000000 1.000000
20 1 202.261920 198.845909 202.261920 198.845909 -0.000000 -0.000000 1.000000 1.000000 1.000000
21 1 71.101673 129.991460 71.101673 129.991460 0.000000 -0.000000 1.000000 1.000000 1.000000
22 1 186.914530 53.079672 186.914530 53.079672 0.000000 0.000001 1.000000 1.000000 1.000000
23 1 136.220809 153.515884 136.220809 153.515884 -0.000000 -0.000000 1.000000 1.000000 1.000000
24 1 190.937664 83.510789 190.937664 83.510789 -0.000000 0.000000 1.000000 1.000000 1.000000
25 1 204.611684 88.139910 204.611684 88.139910 0.000000 -0.000000 1.000000 1.000000 1.000000
26 1 38.479185 92.046874 38.479185 92.046874 -0.000000 0.000000 1.000000 1.000000 1.000000
27 1 83.413869 239.137314 83.413869 239.137314 0.000000 0.000000 1.000000 1.000000 1.000000
28 1 26.796507 71.205818 26.796507 71.205818 -0.000000 0.000000 1.000000 1.000000 1.000000
29 1 202.776299 103.993945 202.776299 103.993945 0.000000 -0.000000 1.000000 1.000000 1.000000
30 1 56.778424 168.544627 56.778424 168.544627 -0.000000 0.000000 1.000000 1.000000 1.000000
31 1 126.939728 247.633138 126.939728 -1.524195 0.000000 0.000000 1.000000 1.000000 1.000000
32 1 240.483977 76.229261 240.483977 76.229261 0.000000 -0.000000 1.000000 1.000000 1.000000
33 1 36.761735 174.542225 36.761735 174.542225 0.000000 -0.000000 1.000000 1.000000 1.000000
34 1 233.129547 225.497056 -16.027786 225.497056 0.000000 -0.000000 1.000000 1.000000 1.000000
35 1 184.605114 224.847275 184.605114 224.847275 -0.000000 0.000000 1.000000 1.000000 1.000000
36 1 9.123609 216.326637 258.280942 216.326637 0.000000 0.000000 1.000000 1.000000 1.000000
37 1 9.421444 188.662163 9.421444 188.662163 0.000000 0.000000 1.000000 1.000000 1.000000
38 1 246.573389 209.142060 246.573389 209.142060 0.000000 -0.000000 1.000000 1.000000 1.000000
39 1 143.258513 167.540411 143.258513 167.540411 -0.000000 0.000000 1.000000 1.000000 1.000000
40 1 7.763378 24.600141 7.763378 24.600141 0.000000 -0.000000 1.000000 1.000000 1.000000
41 1 154.642968 114.020676 154.642968 114.020676 0.000000 0.000000 1.000000 1.000000 1.000000
42 1 145.887947 48.331272 145.887947 48.331272 0.000000 -0.000000 1.000000 1.000000 1.000000
43 1 34.006746 243.572577 34.006746 -5.584756 0.000000 0.000000 1.000000 1.000000 1.000000
44 1 246.342906 128.614504 -2.814427 128.614504 -0.000000 0.000000 1.000000 1.000000 1.000000
45 1 165.869579 146.771957 165.869579 146.771957 0.000000 -0.000000 1.000000 1.000000 1.000000
46 1 187.162196 2.062116 187.162196 251.219449 0.000000 0.000000 1.000000 1.000000 1.000000
47 1 151.898453 37.501771 151.898453 37.501771 0.000000 -0.000000 1.000000 1.000000 1.000000
48 1 132.455470 62.619224 132.455470 62.619224 0.000000 0.000000 1.000000 1.000000 1.000000
49 1 172.840364 120.498738 172.840364 120.498738 0.000000 0.000000 1.000000 1.000000 1.000000
50 1 209.288319 243.608613 209.288319 243.608613 -0.000000 -0.000000 1.000000 1.000000 1.000000
51 1 101.304681 155.040311 101.304681 155.040311 -0.000000 -0.000000 1.000000 1.000000 1.000000
52 1 227.639996 92.450701 227.639996 92.450701 0.000000 -0.000000 1.000000 1.000000 1.000000
53 1 181.032180 126.839039 181.032180 126.839039 0.000000 0.000000 1.000000 1.000000 1.000000
54 1 82.269460 227.561082 82.269460 227.561082 -0.000000 0.000000 1.000000 1.000000 1.000000
55 1 50.028210 27.595208 50.028210 27.595208 0.000000 0.000000 1.000000 1.000000 1.000000
56 1 232.115273 145.588055 232.115273 145.588055 -0.000000 -0.000000 1.000000 1.000000 1.000000
57 1 211.646858 39.865396 211.646858 39.865396 -0.000000 -0.000000 1.000000 1.000000 1.000000
58 1 175.987828 42.493101 175.987828 42.493101 -0.000001 -0.000001 1.000000 1.000000 1.000000
59 1 248.985909 66.017582 -0.171424 66.017582 0.000000 -0.000000 1.000000 1.000000 1.000000
60 1 208.205126 30.198615 208.205126 30.198615 -0.000000 -0.000000 1.000000 1.000000 1.000000
61 1 53.661338 205.573164 53.661338 205.573164 -0.000000 0.000000 1.000000 1.000000 1.000000
62 1 215.249616 246.585868 215.249616 246.585868 -0.000000 -0.000000 1.000000 1.000000 1.000000
63 1 97.577959 85.575826 97.577959 85.575826 0.000000 0.000000 1.000000 1.000000 1.000000
64 1 51.131806 49.066913 51.131806 49.066913 -0.000000 -0.000000 1.000000 1.000000 1.000000
65 1 139.903096 201.027192 139.903096 201.027192 -0.000000 -0.000000 1.000000 1.000000 1.000000
66 1 84.458529 15.006073 84.458529 15.006073 -0.000000 -0.000000 1.000000 1.000000 1.000000
67 1 112.122925 47.317777 112.122925 47.317777 0.000000 0.000000 1.000000 1.000000 1.000000
68 1 67.118900 83.230453 67.118900 83.230453 0.000000 -0.000000 1.000000 1.000000 1.000000
69 1 85.880735 210.814053 85.880735 210.814053 -0.000000 0.000000 1.000000 1.000000 1.000000
70 1 120.901534 120.346889 120.901534 120.346889 -0.000000 -0.000000 1.000000 1.000000 1.000000
71 1 110.350625 210.445709 110.350625 210.445709 0.000000 -0.000000 1.000000 1.000000 1.000000
72 1 24.447147 148.680976 24.447147 148.680976 -0.000000 -0.000000 1.000000 1.000000 1.000000
73 1 92.924976 178.642286 92.924976 178.642286 -0.000000 -0.000000 1.000000 1.000000 1.000000
74 1 120.112944 220.630649 120.112944 220.630649 -0.000000 -0.000000 1.000000 1.000000 1.000000
75 1 138.037654 124.063789 138.037654 124.063789 -0.000000 -0.000000 1.000000 1.000000 1.000000
76 1 70.747074 61.930053 70.747074 61.930053 -0.000000 -0.000000 1.000000 1.000000 1.000000
77 1 55.543135 76.946870 55.543135 76.946870 0.000000 0.000000 1.000000 1.000000 1.000000
78 1 93.109157 13.517122 93.109157 13.517122 -0.000000 0.000000 1.000000 1.000000 1.000000
79 1 168.326556 138.351230 168.326556 138.351230 -0.000000 -0.000000 1.000000 1.000000 1.000000
80 1 217.821311 201.332226 217.821311 201.332226 -0.000000 -0.000000 1.000000 1.000000 1.000000
81 1 2.943720 221.761850 2.943720 221.761850 -0.000000 0.000000 1.000000 1.000000 1.000000
82 1 3.910971 176.394957 3.910971 176.394957 -0.000000 0.000000 1.000000 1.000000 1.000000
83 1 89.940145 37.499496 89.940145 37.499496 -0.000000 0.000000 1.000000 1.000000 1.000000
84 1 210.793209 217.046690 210.793209 217.046690 -0.000000 0.000000 1.000000 1.000000 1.000000
85 1 124.851698 162.723862 124.851698 162.723862 0.000000 0.000000 1.000000 1.000000 1.000000
86 1 56.507523 4.305109 56.507523 253.462442 -0.000000 -0.000000 1.000000 1.000000 1.000000
87 1 130.422527 174.167508 130.422527 174.167508 0.000000 -0.000000 1.000000 1.000000 1.000000
88 1 182.520019 53.173384 182.520019 53.173384 -0.000000 -0.000000 1.000000 1.000000 1.000000
89 1 68.531268 64.660355 68.531268 64.660355 -0.000000 0.000000 1.000000 1.000000 1.000000
90 1 8.781977 166.487299 8.781977 166.487299 -0.000000 -0.000000 1.000000 1.000000 1.000000
91 1 59.375798 225.788230 59.375798 225.788230 -0.000000 0.000000 1.000000 1.000000 1.000000
92 1 136.595599 104.733630 136.595599 104.733630 0.000000 0.000000 1.000000 1.000000 1.000000
93 1 206.819762 239.186426 206.819762 239.186426 -0.000000 -0.000000 1.000000 1.000000 1.000000
94 1 0.708908 58.649834 249.866241 58.649834 0.000000 -0.000000 1.000000 1.000000 1.000000
95 1 180.580525 136.275035 180.580525 136.275035 0.000000 -0.000000 1.000000 1.000000 1.000000
96 1 5.809078 188.185029 5.809078 188.185029 -0.000000 0.000000 1.000000 1.000000 1.000000
97 1 58.937781 193.751539 58.937781 193.751539 -0.000000 0.000000 1.000000 1.000000 1.000000
98 1 152.582395 87.708724 152.582395 87.708724 0.000000 -0.000000 1.000000 1.000000 1.000000
99 1 125.628601 234.763660 125.628601 234.763660 0.000000 -0.000000 1.000000 1.000000 1.000000
100 1 76.991753 173.276457 76.991753 173.276457 -0.000000 -0.000000 1.000000 1.000000 1.000000
101 1 57.556178 90.360825 57.556178 90.360825 0.000000 -0.000000 1.000000 1.000000 1.000000
102 1 7.380256 7.586645 7.380256 7.586645 -0.000000 0.000000 1.000000 1.000000 1.000000
103 1 87.946475 149.580716 87.946475 149.580716 0.000000 -0.000000 1.000000 1.000000 1.000000
104 1 35.629056 85.057346 35.629056 85.057346 -0.000000 0.000000 1.000000 1.000000 1.000000
105 1 135.559811 141.918482 135.559811 141.918482 0.000000 0.000000 1.000000 1.000000 1.000000
106 1 225.252394 194.251380 225.252394 194.251380 -0.000000 -0.000000 1.000000 1.000000 1.000000
107 1 144.974250 170.376864 144.974250 170.376864 -0.000000 -0.000000 1.000000 1.000000 1.000000
108 1 214.653542 105.962152 214.653542 105.962152 0.000000 0.000000 1.000000 1.000000 1.000000
109 1 16.129542 107.428238 16.129542 107.428238 -0.000000 -0.000000 1.000000 1.000000 1.000000
110 1 16.577138 230.223971 16.577138 230.223971 0.000000 0.000000 1.000000 1.000000 1.000000
111 1 8.881963 164.412641 8.881963 164.412641 -0.000000 0.000000 1.000000 1.000000 1.000000
112 1 224.951140 136.601905 224.951140 136.601905 -0.000000 -0.000000 1.000000 1.000000 1.000000
113 1 3.907239 26.046916 3.907239 275.204249 0.000000 0.000000 1.000000 1.000000 1.000000
114 1 171.466006 32.429765 171.466006 32.429765 0.000000 0.000000 1.000000 1.000000 1.000000
115 1 157.815564 39.779665 157.815564 39.779665 0.000000 -0.000000 1.000000 1.000000 1.000000
116 1 181.622571 38.173634 181.622571 38.173634 -0.000001 0.000000 1.000000 1.000000 1.000000
117 1 128.463911 128.673575 128.463911 128.673575 0.000000 0.000000 1.000000 1.000000 1.000000
118 1 239.116104 237.854748 239.116104 237.854748 0.000000 -0.000000 1.000000 1.000000 1.000000
119 1 141.275853 27.328811 141.275853 27.328811 -0.000000 0.000000 1.000000 1.000000 1.000000
120 1 119.524828 207.550797 119.524828 207.550797 -0.000000 0.000000 1.000000 1.000000 1.000000
121 1 71.910888 152.030545 71.910888 152.030545 0.000000 0.000000 1.000000 1.000000 1.000000
122 1 144.303189 35.114669 144.303189 35.114669 0.000000 -0.000000 1.000000 1.000000 1.000000
123 1 5.173421 196.333432 254.330754 196.333432 0.000000 -0.000000 1.000000 1.000000 1.000000
124 1 22.488057 37.327037 22.488057 37.327037 -0.000000 0.000000 1.000000 1.000000 1.000000
125 1 223.465860 218.391644 223.465860 218.391644 0.000000 -0.000000 1.000000 1.000000 1.000000
126 1 139.269876 122.433841 139.269876 122.433841 0.000000 0.000000 1.000000 1.000000 1.000000
127 1 116.868130 205.781560 116.868130 205.781560 -0.000000 0.000000 1.000000 1.000000 1.000000
128 1 207.873747 221.824778 207.873747 221.824778 0.000000 -0.000000 1.000000 1.000000 1.000000
129 1 223.781669 100.902934 223.781669 100.902934 0.000000 0.000000 1.000000 1.000000 1.000000
130 1 100.881783 51.242097 100.881783 51.242097 0.000000 -0.000000 1.000000 1.000000 1.000000
131 1 217.302834 194.568023 -31.854499 194.568023 -0.000000 0.000000 1.000000 1.000000 1.000000
132 1 93.462265 170.746370 93.462265 170.746370 0.000000 -0.000000 1.000000 1.000000 1.000000
133 1 228.282814 71.916968 228.282814 71.916968 0.000000 0.000000 1.000000 1.000000 1.000000
134 1 30.562787 101.400808 30.562787 101.400808 -0.000000 0.000000 1.000000 1.000000 1.000000
135 1 60.796484 245.562445 60.796484 245.562445 -0.000000 -0.000000 1.000000 1.000000 1.000000
136 1 117.919791 21.267840 117.919791 21.267840 -0.000000 0.000000 1.000000 1.000000 1.000000
137 1 63.817248 60.200923 63.817248 60.200923 -0.000000 0.000000 1.000000 1.000000 1.000000
138 1 247.279006 126.661436 247.279006 126.661436 0.000000 0.000000 1.000000 1.000000 1.000000
139 1 192.853116 27.387757 192.853116 27.387757 -0.000000 0.000000 1.000000 1.000000 1.000000
140 1 229.533704 86.832738 229.533704 86.832738 0.000000 0.000000 1.000000 1.000000 1.000000
141 1 209.866768 238.846160 209.866768 238.846160 -0.000000 -0.000000 1.000000 1.000000 1.000000
142 1 89.865272 173.948729 89.865272 173.948729 0.000000 -0.000000 1.000000 1.000000 1.000000
143 1 61.142241 14.376868 61.142241 263.534201 -0.000000 0.000000 1.000000 1.000000 1.000000
144 1 234.677057 108.651554 234.677057 108.651554 -0.000000 -0.000000 1.000000 1.000000 1.000000
145 1 11.548677 190.207074 260.706010 190.207074 -0.000000 0.000000 1.000000 1.000000 1.000000
146 1 201.280429 44.610288 201.280429 44.610288 0.000000 -0.000000 1.000000 1.000000 1.000000
147 1 76.443171 155.698941 76.443171 155.698941 -0.000000 -0.000000 1.000000 1.000000 1.000000
148 1 1.959265 56.244123 251.116598 56.244123 0.000000 0.000000 1.000000 1.000000 1.000000
149 1 15.560063 177.452076 15.560063 177.452076 -0.000000 0.000000 1.000000 1.000000 1.000000
150 1 73.821921 162.077055 73.821921 162.077055 -0.000000 -0.000000 1.000000 1.000000 1.000000
151 1 174.514881 245.397688 174.514881 -3.759645 -0.000000 0.000000 1.000000 1.000000 1.000000
152 1 147.564880 149.221636 147.564880 149.221636 -0.000000 0.000000 1.000000 1.000000 1.000000
153 1 62.423931 94.609237 62.423931 94.609237 0.000000 -0.000000 1.000000 1.000000 1.000000
154 1 206.649871 211.956298 206.649871 211.956298 0.000000 0.000000 1.000000 1.000000 1.000000
155 1 135.011927 246.139390 135.011927 -3.017943 0.000000 -0.000000 1.000000 1.000000 1.000000
156 1 31.916607 68.507271 31.916607 68.507271 0.000000 0.000000 1.000000 1.000000 1.000000
157 1 8.259660 5.348819 257.416993 5.348819 0.000000 0.000000 1.000000 1.000000 1.000000
158 1 180.170496 224.547123 180.170496 224.547123 0.000000 0.000000 1.000000 1.000000 1.000000
159 1 92.200941 184.871133 92.200941 184.871133 0.000000 -0.000000 1.000000 1.000000 1.000000
160 1 212.036403 90.855574 212.036403 90.855574 -0.000000 -0.000000 1.000000 1.000000 1.000000
161 1 172.204303 244.120181 172.204303 244.120181 -0.000000 0.000000 1.000000 1.000000 1.000000
162 1 123.130089 33.115014 123.130089 33.115014 0.000000 0.000000 1.000000 1.000000 1.000000
163 1 38.135126 75.514921 38.135126 75.514921 -0.000000 -0.000000 1.000000 1.000000 1.000000
164 1 10.070342 19.987057 10.070342 19.987057 0.000000 -0.000000 1.000000 1.000000 1.000000
165 1 123.204534 92.106831 123.204534 92.106831 0.000000 -0.000000 1.000000 1.000000 1.000000
166 1 45.887817 164.792165 45.887817 164.792165 0.000000 0.000000 1.000000 1.000000 1.000000
167 1 85.878903 93.295453 85.878903 93.295453 0.000000 0.000000 1.000000 1.000000 1.000000
168 1 72.525233 217.744189 72.525233 217.744189 -0.000000 -0.000000 1.000000 1.000000 1.000000
169 1 171.986997 114.526901 171.986997 114.526901 0.000000 -0.000000 1.000000 1.000000 1.000000
170 1 202.602705 87.805746 202.602705 87.805746 0.000000 0.000000 1.000000 1.000000 1.000000
171 1 3.914562 151.599589 3.914562 151.599589 -0.000000 0.000000 1.000000 1.000000 1.000000
172 1 71.304041 179.422429 71.304041 179.422429 0.000000 0.000000 1.000000 1.000000 1.000000
173 1 4.810878 164.329614 4.810878 164.329614 0.000000 0.000000 1.000000 1.000000 1.000000
174 1 73.507563 9.790910 73.507563 9.790910 0.000000 0.000000 1.000000 1.000000 1.000000
175 1 210.923117 199.102534 210.923117 199.102534 0.000000 0.000000 1.000000 1.000000 1.000000
176 1 222.132419 96.781943 222.132419 96.781943 0.000000 0.000000 1.000000 1.000000 1.000000
177 1 78.563560 64.861387 78.563560 64.861387 -0.000000 0.000000 1.000000 1.000000 1.000000
178 1 18.708261 23.940775 18.708261 23.940775 -0.000000 -0.000000 1.000000 1.000000 1.000000
179 1 81.015956 20.840324 81.015956 20.840324 -0.000000 0.000000 1.000000 1.000000 1.000000
180 1 214.488678 212.784634 214.488678 212.784634 0.000000 0.000000 1.000000 1.000000 1.000000
181 1 94.303500 188.820555 94.303500 188.820555 -0.000000 -0.000000 1.000000 1.000000 1.000000
182 1 43.045735 160.335552 43.045735 160.335552 0.000000 0.000000 1.000000 1.000000 1.000000
183 1 176.226852 77.909449 176.226852 77.909449 -0.000000 0.000000 1.000000 1.000000 1.000000
184 1 212.842390 183.555542 212.842390 183.555542 0.000000 -0.000000 1.000000 1.000000 1.000000
185 1 30.795707 51.847877 30.795707 51.847877 -0.000000 -0.000000 1.000000 1.000000 1.000000
186 1 239.461963 193.112846 239.461963 193.112846 0.000000 -0.000000 1.000000 1.000000 1.000000
187 1 20.239090 5.477197 20.239090 5.477197 -0.000000 -0.000000 1.000000 1.000000 1.000000
188 1 50.345719 121.039504 50.345719 121.039504 -0.000000 -0.000000 1.000000 1.000000 1.000000
189 1 246.483955 22.950716 246.483955 22.950716 0.000000 -0.000000 1.000000 1.000000 1.000000
190 1 170.493882 245.612570 170.493882 245.612570 0.000000 0.000000 1.000000 1.000000 1.000000
191 1 229.384023 223.316990 229.384023 -25.840343 0.000000 0.000000 1.000000 1.000000 1.000000
192 1 19.114186 83.030643 19.114186 83.030643 -0.000000 0.000000 1.000000 1.000000 1.000000
193 1 151.797248 242.362512 151.797248 -6.794821 0.000000 0.000000 1.000000 1.000000 1.000000
194 1 18.836691 109.927569 18.836691 109.927569 0.000000 0.000000 1.000000 1.000000 1.000000
195 1 49.171081 34.156246 49.171081 34.156246 0.000000 -0.000000 1.000000 1.000000 1.000000
196 1 225.085709 172.456831 225.085709 172.456831 -0.000000 0.000000 1.000000 1.000000 1.000000
197 1 151.233984 6.503474 151.233984 6.503474 -0.000000 0.000000 1.000000 1.000000 1.000000
198 1 90.474636 99.995689 90.474636 99.995689 -0.000000 -0.000000 1.000000 1.000000 1.000000
199 1 122.946312 212.190403 122.946312 212.190403 0.000000 -0.000000 1.000000 1.000000 1.000000
200 1 59.723062 203.167946 59.723062 203.167946 0.000000 -0.000000 1.000000 1.000000 1.000000
201 1 229.101709 167.516512 229.101709 167.516512 -0.000000 0.000000 1.000000 1.000000 1.000000
202 1 164.679892 245.013241 164.679892 245.013241 0.000000 0.000000 1.000000 1.000000 1.000000
203 1 183.481563 129.946740 183.481563 129.946740 -0.000000 -0.000000 1.000000 1.000000 1.000000
204 1 44.641701 3.933378 44.641701 253.090711 0.000000 0.000000 1.000000 1.000000 1.000000
205 1 182.631662 35.596382 182.631662 35.596382 -0.000001 -0.000001 1.000000 1.000000 1.000000
206 1 32.304135 190.778894 32.304135 190.778894 0.000000 0.000000 1.000000 1.000000 1.000000
207 1 36.632878 129.580873 36.632878 129.580873 -0.000000 -0.000000 1.000000 1.000000 1.000000
208 1 64.969366 138.009290 64.969366 138.009290 0.000000 -0.000000 1.000000 1.000000 1.000000
209 1 235.904348 49.816991 235.904348 49.816991 0.000000 -0.000000 1.000000 1.000000 1.000000
210 1 136.086678 174.169148 136.086678 174.169148 -0.000000 0.000000 1.000000 1.000000 1.000000
211 1 152.791186 61.654676 152.791186 61.654676 0.000000 -0.000000 1.000000 1.000000 1.000000
212 1 195.554894 197.069220 195.554894 197.069220 0.000000 -0.000000 1.000000 1.000000 1.000000
213 1 210.463784 172.758681 210.463784 172.758681 0.000000 0.000000 1.000000 1.000000 1.000000
214 1 25.465219 13.156945 25.465219 13.156945 -0.000000 -0.000000 1.000000 1.000000 1.000000
215 1 207.939591 207.734347 207.939591 207.734347 0.000000 0.000000 1.000000 1.000000 1.000000
216 1 236.991351 83.521995 -12.165982 83.521995 -0.000000 -0.000000 1.000000 1.000000 1.000000
217 1 219.944498 170.521111 219.944498 170.521111 -0.000000 -0.000000 1.000000 1.000000 1.000000
218 1 246.942502 79.862252 -2.214831 79.862252 -0.000000 -0.000000 1.000000 1.000000 1.000000
219 1 115.151868 210.949984 115.151868 210.949984 -0.000000 -0.000000 1.000000 1.000000 1.000000
220 1 223.986945 132.600760 223.986945 132.600760 -0.000000 -0.000000 1.000000 1.000000 1.000000
221 1 74.579517 194.557322 74.579517 194.557322 -0.000000 -0.000000 1.000000 1.000000 1.000000
222 1 182.550228 233.285285 182.550228 -15.872048 0.000000 0.000000 1.000000 1.000000 1.000000
223 1 35.716006 114.701848 35.716006 114.701848 -0.000000 -0.000000 1.000000 1.000000 1.000000
224 1 129.221772 115.870869 129.221772 115.870869 0.000000 -0.000000 1.000000 1.000000 1.000000
225 1 121.471023 112.791823 121.471023 112.791823 -0.000000 -0.000000 1.000000 1.000000 1.000000
226 1 130.930111 155.232823 130.930111 155.232823 0.000000 -0.000000 1.000000 1.000000 1.000000
227 1 65.310021 171.124394 65.310021 171.124394 0.000000 0.000000 1.000000 1.000000 1.000000
228 1 132.511668 117.625174 132.511668 117.625174 -0.000000 0.000000 1.000000 1.000000 1.000000
229 1 120.963518 190.435228 120.963518 190.435228 0.000000 0.000000 1.000000 1.000000 1.000000
230 1 91.613730 16.877894 91.613730 266.035227 0.000000 0.000000 1.000000 1.000000 1.000000
231 1 186.056886 51.063090 186.056886 51.063090 -0.000001 0.000002 1.000000 1.000000 1.000000
232 1 156.907349 26.467191 156.907349 26.467191 0.000000 -0.000000 1.000000 1.000000 1.000000
233 1 155.764499 70.154672 155.764499 70.154672 0.000000 0.000000 1.000000 1.000000 1.000000
234 1 107.098612 135.125388 107.098612 135.125388 0.000000 0.000000 1.000000 1.000000 1.000000
235 1 209.652008 210.435881 209.652008 210.435881 -0.000000 0.000000 1.000000 1.000000 1.000000
236 1 9.718208 28.480801 9.718208 28.480801 -0.000000 -0.000000 1.000000 1.000000 1.000000
237 1 198.145900 10.024328 198.145900 10.024328 -0.000000 0.000000 1.000000 1.000000 1.000000
238 1 43.921886 68.487091 43.921886 68.487091 -0.000000 0.000000 1.000000 1.000000 1.000000
239 1 89.444399 187.499306 89.444399 187.499306 -0.000000 0.000000 1.000000 1.000000 1.000000
240 1 38.993323 117.440931 38.993323 117.440931 0.000000 -0.000000 1.000000 1.000000 1.000000
241 1 148.416335 142.339285 148.416335 142.339285 0.000000 -0.000000 1.000000 1.000000 1.000000
242 1 166.373867 157.456046 166.373867 157.456046 0.000000 0.000000 1.000000 1.000000 1.000000
243 1 43.618917 144.181987 43.618917 144.181987 -0.000000 -0.000000 1.000000 1.000000 1.000000
244 1 238.251961 152.145403 238.251961 152.145403 0.000000 -0.000000 1.000000 1.000000 1.000000
245 1 108.604088 18.651978 108.604088 18.651978 -0.000000 0.000000 1.000000 1.000000 1.000000
246 1 83.091646 3.007942 83.091646 252.165275 0.000000 -0.000000 1.000000 1.000000 1.000000
247 1 221.398661 56.036901 221.398661 56.036901 0.000000 0.000000 1.000000 1.000000 1.000000
248 1 16.905629 80.751800 16.905629 80.751800 0.000000 0.000000 1.000000 1.000000 1.000000
249 1 214.295876 13.048273 214.295876 262.205606 0.000000 0.000000 1.000000 1.000000 1.000000
250 1 247.612491 190.090571 247.612491 190.090571 -0.000000 0.000000 1.000000 1.000000 1.000000
251 1 138.406308 174.922388 138.406308 174.922388 0.000000 0.000000 1.000000 1.000000 1.000000
252 1 79.908849 245.510234 79.908849 -3.647099 0.000000 0.000000 1.000000 1.000000 1.000000
253 1 226.218510 182.863523 226.218510 182.863523 -0.000000 -0.000000 1.000000 1.000000 1.000000
254 1 183.204430 194.570866 183.204430 194.570866 0.000000 0.000000 1.000000 1.000000 1.000000
255 1 19.791618 196.514239 19.791618 196.514239 0.000000 0.000000 1.000000 1.000000 1.000000
256 1 2.742825 141.882194 251.900158 141.882194 -0.000000 -0.000000 1.000000 1.000000 1.000000
257 1 219.659208 233.848415 219.659208 233.848415 0.000000 -0.000000 1.000000 1.000000 1.000000
258 1 127.331233 218.585867 127.331233 218.585867 -0.000000 -0.000000 1.000000 1.000000 1.000000
259 1 139.402048 160.795396 139.402048 160.795396 -0.000000 0.000000 1.000000 1.000000 1.000000
260 1 107.201449 30.343168 107.201449 30.343168 -0.000000 -0.000000 1.000000 1.000000 1.000000
261 1 109.778636 223.359202 109.778636 223.359202 0.000000 -0.000000 1.000000 1.000000 1.000000
262 1 7.072624 151.080877 7.072624 151.080877 0.000000 -0.000000 1.000000 1.000000 1.000000
263 1 243.581526 162.724930 -5.575807 162.724930 -0.000000 -0.000000 1.000000 1.000000 1.000000
264 1 244.368970 234.476341 244.368970 -14.680992 -0.000000 0.000000 1.000000 1.000000 1.000000
265 1 105.748986 69.619352 105.748986 69.619352 -0.000000 -0.000000 1.000000 1.000000 1.000000
266 1 72.521913 60.620641 72.521913 60.620641 -0.000000 0.000000 1.000000 1.000000 1.000000
267 1 170.653979 105.734098 170.653979 105.734098 -0.000000 -0.000000 1.000000 1.000000 1.000000
268 1 54.260041 232.377210 54.260041 232.377210 0.000000 -0.000000 1.000000 1.000000 1.000000
269 1 122.881426 215.050984 122.881426 215.050984 -0.000000 -0.000000 1.000000 1.000000 1.000000
270 1 50.405716 63.341849 50.405716 63.341849 0.000000 -0.000000 1.000000 1.000000 1.000000
271 1 21.656071 141.321619 270.813404 141.321619 -0.000000 0.000000 1.000000 1.000000 1.000000
272 1 210.246640 206.936406 210.246640 206.936406 -0.000000 0.000000 1.000000 1.000000 1.000000
273 1 48.572692 233.106260 48.572692 233.106260 -0.000000 -0.000000 1.000000 1.000000 1.000000
274 1 67.211006 10.620147 67.211006 10.620147 -0.000000 -0.000000 1.000000 1.000000 1.000000
275 1 42.518035 243.136268 42.518035 243.136268 0.000000 0.000000 1.000000 1.000000 1.000000
276 1 238.446268 17.191586 -10.711065 17.191586 0.000000 0.000000 1.000000 1.000000 1.000000
277 1 225.210043 12.603300 225.210043 12.603300 -0.000000 -0.000000 1.000000 1.000000 1.000000
278 1 175.044474 143.649617 175.044474 143.649617 0.000000 -0.000000 1.000000 1.000000 1.000000
279 1 223.188577 164.625585 -25.968756 164.625585 -0.000000 0.000000 1.000000 1.000000 1.000000
280 1 17.974373 152.876284 17.974373 152.876284 0.000000 0.000000 1.000000 1.000000 1.000000
281 1 12.271069 196.405739 12.271069 196.405739 -0.000000 0.000000 1.000000 1.000000 1.000000
282 1 39.656811 102.205289 39.656811 102.205289 -0.000000 0.000000 1.000000 1.000000 1.000000
283 1 226.563937 166.071640 226.563937 166.071640 0.000000 0.000000 1.000000 1.000000 1.000000
284 1 11.725652 143.823290 11.725652 143.823290 -0.000000 -0.000000 1.000000 1.000000 1.000000
285 1 2.268304 138.258784 251.425637 138.258784 -0.000000 -0.000000 1.000000 1.000000 1.000000
286 1 37.412349 56.992202 37.412349 56.992202 0.000000 -0.000000 1.000000 1.000000 1.000000
287 1 200.297065 100.248407 200.297065 100.248407 -0.000000 0.000000 1.000000 1.000000 1.000000
288 1 167.963778 53.927811 167.963778 53.927811 -0.000000 -0.000000 1.000000 1.000000 1.000000
289 1 215.330123 209.306834 215.330123 209.306834 -0.000000 0.000000 1.000000 1.000000 1.000000
290 1 67.188139 26.482376 67.188139 26.482376 -0.000000 0.000000 1.000000 1.000000 1.000000
291 1 141.962525 127.194652 141.962525 127.194652 -0.000000 0.000000 1.000000 1.000000 1.000000
292 1 166.803045 131.774307 166.803045 131.774307 0.000000 -0.000000 1.000000 1.000000 1.000000
293 1 9.175415 175.226871 258.332748 175.226871 -0.000000 -0.000000 1.000000 1.000000 1.000000
294 1 242.218110 46.855808 -6.939223 46.855808 -0.000000 -0.000000 1.000000 1.000000 1.000000
295 1 62.856768 54.963893 62.856768 54.963893 -0.000000 0.000000 1.000000 1.000000 1.000000
296 1 171.792249 158.595275 171.792249 158.595275 -0.000000 0.000000 1.000000 1.000000 1.000000
297 1 84.612747 6.525043 84.612747 255.682376 0.000000 -0.000000 1.000000 1.000000 1.000000
298 1 77.417802 160.805520 77.417802 160.805520 0.000000 0.000000 1.000000 1.000000 1.000000
299 1 49.620405 41.127479 49.620405 41.127479 -0.000000 -0.000000 1.000000 1.000000 1.000000
300 1 229.805745 10.457489 229.805745 10.457489 -0.000000 0.000000 1.000000 1.000000 1.000000
301 1 36.255218 242.864816 36.255218 242.864816 0.000000 -0.000000 1.000000 1.000000 1.000000
302 1 75.168420 82.974304 75.168420 82.974304 -0.000000 -0.000000 1.000000 1.000000 1.000000
303 1 59.345975 168.982980 59.345975 168.982980 -0.000000 0.000000 1.000000 1.000000 1.000000
304 1 189.707903 106.362025 189.707903 106.362025 -0.000000 0.000000 1.000000 1.000000 1.000000
305 1 244.710770 29.992129 244.710770 29.992129 -0.000000 0.000000 1.000000 1.000000 1.000000
306 1 8.521774 195.737854 257.679107 195.737854 0.000000 -0.000000 1.000000 1.000000 1.000000
307 1 5.918660 167.372461 5.918660 167.372461 -0.000000 -0.000000 1.000000 1.000000 1.000000
308 1 11.464676 6.539641 11.464676 6.539641 -0.000000 0.000000 1.000000 1.000000 1.000000
309 1 91.995443 32.925652 91.995443 32.925652 -0.000000 0.000000 1.000000 1.000000 1.000000
310 1 197.380788 165.381984 197.380788 165.381984 -0.000000 0.000000 1.000000 1.000000 1.000000
311 1 238.613151 248.593408 -10.544182 -0.563925 -0.000000 0.000000 1.000000 1.000000 1.000000
312 1 48.725082 81.807944 48.725082 81.807944 -0.000000 0.000000 1.000000 1.000000 1.000000
313 1 174.003811 18.813853 174.003811 267.971186 0.000000 0.000000 1.000000 1.000000 1.000000
314 1 153.330386 121.849948 153.330386 121.849948 0.000000 -0.000000 1.000000 1.000000 1.000000
315 1 6.523485 72.739439 6.523485 72.739439 -0.000000 -0.000000 1.000000 1.000000 1.000000
316 1 189.696998 229.429809 189.696998 -19.727524 0.000000 -0.000000 1.000000 1.000000 1.000000