ITEM: TIMESTEP
5600.000000
ITEM: NUMBER OF ATOMS
5000
ITEM: BOX BOUNDS xy xz yz
0 230.576283 0
0 230.576283 0
0 2 0
ITEM: ATOMS id type x y xu yu vx vy radius m z
0 1 133.091872 114.969497 133.091872 114.969497 0.000000 0.000000 1.000000 1.000000 1.000000
1 1 207.686818 212.076543 207.686818 212.076543 -0.000000 0.000000 1.000000 1.000000 1.000000
2 1 1.890344 41.962772 232.466627 41.962772 0.000000 0.000000 1.000000 1.000000 1.000000
3 1 94.868405 44.363946 94.868405 44.363946 0.000000 0.000000 1.000000 1.000000 1.000000
4 1 104.735733 31.456305 104.735733 31.456305 0.000000 0.000000 1.000000 1.000000 1.000000
5 1 138.622608 221.310259 138.622608 221.310259 0.000000 -0.000000 1.000000 1.000000 1.000000
6 1 196.248523 153.581818 196.248523 153.581818 0.000000 0.000000 1.000000 1.000000 1.000000
7 1 171.096423 182.512201 171.096423 182.512201 -0.000000 -0.000000 1.000000 1.000000 1.000000
8 1 148.589891 7.785634 148.589891 7.785634 -0.000000 0.000000 1.000000 1.000000 1.000000
9 1 65.772257 85.876189 65.772257 85.876189 -0.000000 0.000000 1.000000 1.000000 1.000000
10 1 144.206054 163.109924 144.206054 163.109924 -0.000000 0.000000 1.000000 1.000000 1.000000
11 1 123.994106 191.960124 123.994106 191.960124 -0.000000 -0.000000 1.000000 1.000000 1.000000
12 1 181.120198 132.886199 181.120198 132.886199 0.000000 -0.000000 1.000000 1.000000 1.000000
13 1 167.829502 14.416436 167.829502 244.992719 0.000000 -0.000000 1.000000 1.000000 1.000000
14 1 21.037225 78.819196 21.037225 78.819196 -0.000000 0.000000 1.000000 1.000000 1.000000
15 1 68.255791 7.993755 68.255791 7.993755 0.000000 -0.000000 1.000000 1.000000 1.000000
16 1 7.916837 19.684033 7.916837 250.260316 0.000000 -0.000000 1.000000 1.000000 1.000000
17 1 155.845924 69.008393 155.845924 69.008393 -0.000000 0.000000 1.000000 1.000000 1.000000
18 1 185.931711 173.470145 185.931711 173.470145 0.000000 0.000000 1.000000 1.000000 1.000000
19 1 110.807260 43.720079 110.807260 43.720079 -0.000000 0.000000 1.000000 1.000000 1.000000
20 1 164.140086 12.197022 164.140086 12.197022 -0.000000 0.000000 1.000000 1.000000 1.000000
21 1 97.486832 162.658253 97.486832 162.658253 -0.000000 0.000000 1.000000 1.000000 1.000000
22 1 5.997184 135.255628 5.997184 135.255628 -0.000000 0.000000 1.000000 1.000000 1.000000
23 1 152.579055 103.479281 152.579055 103.479281 0.000000 -0.000000 1.000000 1.000000 1.000000
24 1 38.782915 18.378824 38.782915 18.378824 -0.000000 -0.000000 1.000000 1.000000 1.000000
25 1 94.403786 0.177656 94.403786 230.753939 0.000000 0.000000 1.000000 1.000000 1.000000
26 1 143.522203 79.996621 143.522203 79.996621 -0.000000 -0.000000 1.000000 1.000000 1.000000
27 1 95.834528 223.974312 95.834528 -6.601971 -0.000000 -0.000000 1.000000 1.000000 1.000000
28 1 1.104832 95.191993 1.104832 95.191993 0.000000 0.000000 1.000000 1.000000 1.000000
29 1 222.384845 226.177969 222.384845 -4.398314 0.000000 -0.000000 1.000000 1.000000 1.000000
30 1 46.601280 177.368774 46.601280 177.368774 0.000000 -0.000000 1.000000 1.000000 1.000000
31 1 217.775981 52.168448 217.775981 52.168448 -0.000000 0.000000 1.000000 1.000000 1.000000
32 1 1.072898 167.251638 1.072898 167.251638 0.000000 -0.000000 1.000000 1.000000 1.000000
33 1 58.506644 113.523350 58.506644 113.523350 -0.000000 0.000000 1.000000 1.000000 1.000000
34 1 127.972468 114.976488 127.972468 114.976488 0.000000 0.000000 1.000000 1.000000 1.000000
35 1 68.975083 190.219371 68.975083 190.219371 0.000000 0.000000 1.000000 1.000000 1.000000
36 1 31.574221 1.241637 31.574221 1.241637 -0.000000 0.000000 1.000000 1.000000 1.000000
37 1 228.474918 175.119009 228.474918 175.119009 0.000000 -0.000000 1.000000 1.000000 1.000000
38 1 144.855180 106.628465 144.855180 106.628465 0.000000 0.000000 1.000000 1.000000 1.000000
39 1 41.363855 141.635741 41.363855 141.635741 -0.000000 0.000000 1.000000 1.000000 1.000000
40 1 103.863805 215.356978 103.863805 215.356978 -0.000000 -0.000000 1.000000 1.000000 1.000000
41 1 12.101271 177.309529 12.101271 177.309529 0.000000 0.000000 1.000000 1.000000 1.000000
42 1 32.942355 101.800963 32.942355 101.800963 -0.000000 0.000000 1.000000 1.000000 1.000000
43 1 188.216589 48.086778 188.216589 48.086778 -0.000000 -0.000000 1.000000 1.000000 1.000000
44 1 182.881862 208.434200 182.881862 208.434200 -0.000000 0.000000 1.000000 1.000000 1.000000
45 1 119.421968 14.612317 119.421968 245.188600 0.000000 -0.000000 1.000000 1.000000 1.000000
46 1 9.052276 217.984037 239.628559 217.984037 0.000000 0.000000 1.000000 1.000000 1.000000
47 1 203.751010 80.369646 203.751010 80.369646 0.000000 0.000000 1.000000 1.000000 1.000000
48 1 35.885651 176.762653 35.885651 176.762653 0.000000 0.000000 1.000000 1.000000 1.000000
49 1 52.444797 23.097710 52.444797 253.673993 0.000000 -0.000000 1.000000 1.000000 1.000000
50 1 210.726605 54.376337 210.726605 54.376337 0.000000 0.000000 1.000000 1.000000 1.000000
51 1 109.428226 105.196534 109.428226 105.196534 0.000000 0.000000 1.000000 1.000000 1.000000
52 1 201.959702 101.331997 201.959702 101.331997 0.000000 -0.000000 1.000000 1.000000 1.000000
53 1 28.317722 69.533833 28.317722 69.533833 0.000000 0.000000 1.000000 1.000000 1.000000
54 1 66.396324 103.600499 66.396324 103.600499 -0.000000 -0.000000 1.000000 1.000000 1.000000
55 1 203.313873 21.458686 203.313873 21.458686 0.000000 0.000000 1.000000 1.000000 1.000000
56 1 15.303813 193.837663 245.880096 193.837663 -0.000000 -0.000000 1.000000 1.000000 1.000000
57 1 91.480532 44.444562 91.480532 44.444562 0.000000 -0.000000 1.000000 1.000000 1.000000
58 1 73.955510 118.508012 73.955510 118.508012 -0.000000 -0.000000 1.000000 1.000000 1.000000
59 1 35.177381 13.167628 35.177381 13.167628 0.000000 0.000000 1.000000 1.000000 1.000000
60 1 181.042781 222.314233 181.042781 -8.262050 0.000000 0.000000 1.000000 1.000000 1.000000
61 1 80.588517 201.328731 80.588517 201.328731 0.000000 -0.000000 1.000000 1.000000 1.000000
62 1 197.036480 122.164330 197.036480 122.164330 -0.000000 0.000000 1.000000 1.000000 1.000000
63 1 78.516290 113.873001 78.516290 113.873001 -0.000000 -0.000000 1.000000 1.000000 1.000000
64 1 164.307319 103.886024 164.307319 103.886024 0.000000 -0.000000 1.000000 1.000000 1.000000
65 1 224.898198 59.107633 -5.678085 59.107633 -0.000000 -0.000000 1.000000 1.000000 1.000000
66 1 194.617431 107.667326 194.617431 107.667326 -0.000000 0.000000 1.000000 1.000000 1.000000
67 1 181.231761 193.645503 181.231761 193.645503 0.000000 -0.000000 1.000000 1.000000 1.000000
68 1 111.669675 119.874904 111.669675 119.874904 -0.000000 -0.000000 1.000000 1.000000 1.000000
69 1 162.570050 14.327715 162.570050 244.903998 0.000000 0.000000 1.000000 1.000000 1.000000
70 1 50.319825 229.588579 50.319825 -0.987704 0.000000 0.000000 1.000000 1.000000 1.000000
71 1 187.922271 218.696196 187.922271 218.696196 0.000000 -0.000000 1.000000 1.000000 1.000000
72 1 68.167948 41.944244 68.167948 41.944244 0.000000 -0.000000 1.000000 1.000000 1.000000
73 1 86.410772 128.692059 86.410772 128.692059 -0.000000 -0.000000 1.000000 1.000000 1.000000
74 1 198.069158 19.409953 198.069158 249.986236 -0.000000 -0.000000 1.000000 1.000000 1.000000
75 1 185.256793 4.831971 -45.319490 4.831971 0.000000 0.000000 1.000000 1.000000 1.000000
76 1 114.507028 23.934967 114.507028 254.511250 -0.000000 0.000000 1.000000 1.000000 1.000000
77 1 158.992446 145.934655 158.992446 145.934655 0.000000 0.000000 1.000000 1.000000 1.000000
78 1 56.743614 125.319966 56.743614 125.319966 -0.000000 -0.000000 1.000000 1.000000 1.000000
79 1 194.247517 115.213795 194.247517 115.213795 0.000000 0.000000 1.000000 1.000000 1.000000
80 1 53.591415 223.074407 53.591415 223.074407 0.000000 0.000000 1.000000 1.000000 1.000000
81 1 217.003052 183.358199 217.003052 183.358199 0.000000 0.000000 1.000000 1.000000 1.000000
82 1 78.048374 146.338240 78.048374 146.338240 0.000000 0.000000 1.000000 1.000000 1.000000
83 1 188.177918 163.865535 188.177918 163.865535 0.000000 -0.000000 1.000000 1.000000 1.000000
84 1 80.164575 124.532765 80.164575 124.532765 0.000000 -0.000000 1.000000 1.000000 1.000000
85 1 38.462128 71.426990 38.462128 71.426990 0.000000 0.000000 1.000000 1.000000 1.000000
86 1 43.245917 30.314991 43.245917 30.314991 -0.000000 -0.000000 1.000000 1.000000 1.000000
87 1 193.782773 171.561428 193.782773 171.561428 -0.000000 0.000000 1.000000 1.000000 1.000000
88 1 98.747653 198.043249 98.747653 198.043249 -0.000000 0.000000 1.000000 1.000000 1.000000
89 1 61.016992 81.201760 61.016992 81.201760 -0.000000 -0.000000 1.000000 1.000000 1.000000
90 1 8.535082 166.583576 8.535082 166.583576 -0.000000 -0.000000 1.000000 1.000000 1.000000
91 1 197.065295 148.898410 197.065295 148.898410 -0.000000 -0.000000 1.000000 1.000000 1.000000
92 1 218.295401 41.035165 -12.280882 41.035165 -0.000000 -0.000000 1.000000 1.000000 1.000000
93 1 209.038273 4.923903 209.038273 235.500186 0.000000 0.000000 1.000000 1.000000 1.000000
94 1 115.434373 11.969628 115.434373 11.969628 0.000000 -0.000000 1.000000 1.000000 1.000000
95 1 219.470716 115.217489 219.470716 115.217489 -0.000000 0.000000 1.000000 1.000000 1.000000
96 1 190.835430 181.191069 190.835430 181.191069 0.000000 0.000000 1.000000 1.000000 1.000000
97 1 18.940562 124.688704 18.940562 124.688704 -0.000000 -0.000000 1.000000 1.000000 1.000000
98 1 139.467198 28.518920 139.467198 28.518920 0.000000 0.000000 1.000000 1.000000 1.000000
99 1 109.989407 229.806964 109.989407 229.806964 -0.000000 -0.000000 1.000000 1.000000 1.000000
100 1 79.689892 74.148707 79.689892 74.148707 -0.000000 -0.000000 1.000000 1.000000 1.000000
101 1 188.348797 119.862170 188.348797 119.862170 0.000000 0.000000 1.000000 1.000000 1.000000
102 1 183.909556 134.985962 183.909556 134.985962 0.000000 -0.000000 1.000000 1.000000 1.000000
103 1 64.295466 87.346038 64.295466 87.346038 0.000000 -0.000000 1.000000 1.000000 1.000000
104 1 77.620521 133.131149 77.620521 133.131149 0.000000 -0.000000 1.000000 1.000000 1.000000
105 1 188.597020 114.060469 188.597020 114.060469 -0.000000 -0.000000 1.000000 1.000000 1.000000
106 1 153.491064 43.786344 153.491064 43.786344 -0.000000 0.000000 1.000000 1.000000 1.000000
107 1 80.312567 85.141858 80.312567 85.141858 -0.000000 0.000000 1.000000 1.000000 1.000000
108 1 204.043333 110.379673 204.043333 110.379673 -0.000000 0.000000 1.000000 1.000000 1.000000
109 1 206.121572 60.102007 206.121572 60.102007 0.000000 -0.000000 1.000000 1.000000 1.000000
110 1 195.846472 197.286486 195.846472 197.286486 0.000000 0.000000 1.000000 1.000000 1.000000
111 1 5.569427 57.467627 236.145710 57.467627 -0.000000 -0.000000 1.000000 1.000000 1.000000
112 1 101.506234 53.907457 101.506234 53.907457 0.000000 0.000000 1.000000 1.000000 1.000000
113 1 141.336369 34.945886 141.336369 34.945886 -0.000000 0.000000 1.000000 1.000000 1.000000
114 1 3.274345 146.398496 3.274345 146.398496 0.000000 -0.000000 1.000000 1.000000 1.000000
115 1 57.152346 119.090443 57.152346 119.090443 0.000000 0.000000 1.000000 1.000000 1.000000
116 1 47.161233 156.361831 47.161233 156.361831 -0.000000 0.000000 1.000000 1.000000 1.000000
117 1 161.307305 185.044011 161.307305 185.044011 -0.000000 0.000000 1.000000 1.000000 1.000000
118 1 106.906531 121.430740 106.906531 121.430740 -0.000000 0.000000 1.000000 1.000000 1.000000
119 1 126.989659 40.741270 126.989659 40.741270 -0.000000 0.000000 1.000000 1.000000 1.000000
120 1 25.610476 181.953167 25.610476 181.953167 -0.000000 -0.000000 1.000000 1.000000 1.000000
121 1 219.233859 87.693684 219.233859 87.693684 -0.000000 0.000000 1.000000 1.000000 1.000000
122 1 222.289108 25.839249 -8.287175 25.839249 -0.000000 0.000000 1.000000 1.000000 1.000000
123 1 213.711498 144.814815 213.711498 144.814815 0.000000 -0.000000 1.000000 1.000000 1.000000
124 1 120.209171 185.349031 120.209171 185.349031 0.000000 0.000000 1.000000 1.000000 1.000000
125 1 25.241299 217.802961 255.817582 217.802961 -0.000000 -0.000000 1.000000 1.000000 1.000000
126 1 173.828860 37.877911 173.828860 37.877911 0.000000 -0.000000 1.000000 1.000000 1.000000
127 1 213.153204 205.260883 -17.423079 205.260883 -0.000000 -0.000000 1.000000 1.000000 1.000000
128 1 227.030445 220.528031 227.030445 220.528031 -0.000000 -0.000000 1.000000 1.000000 1.000000
129 1 42.057466 94.320528 42.057466 94.320528 0.000000 -0.000000 1.000000 1.000000 1.000000
130 1 26.425602 97.944818 26.425602 97.944818 0.000000 0.000000 1.000000 1.000000 1.000000
131 1 131.028734 154.829480 131.028734 154.829480 0.000000 0.000000 1.000000 1.000000 1.000000
132 1 106.641079 156.927101 106.641079 156.927101 -0.000000 0.000000 1.000000 1.000000 1.000000
133 1 210.753490 50.376245 210.753490 50.376245 0.000000 0.000000 1.000000 1.000000 1.000000
134 1 41.617780 87.128348 41.617780 87.128348 -0.000000 0.000000 1.000000 1.000000 1.000000
135 1 155.971767 115.905848 155.971767 115.905848 -0.000000 0.000000 1.000000 1.000000 1.000000
136 1 177.841152 82.571985 177.841152 82.571985 -0.000000 -0.000000 1.000000 1.000000 1.000000
137 1 141.934357 137.751652 141.934357 137.751652 0.000000 0.000000 1.000000 1.000000 1.000000
138 1 223.243291 177.842284 -7.332992 177.842284 0.000000 -0.000000 1.000000 1.000000 1.000000
139 1 104.746300 54.685276 104.746300 54.685276 -0.000000 0.000000 1.000000 1.000000 1.000000
140 1 210.210386 38.233095 210.210386 38.233095 -0.000000 -0.000000 1.000000 1.000000 1.000000
141 1 100.060188 57.842065 100.060188 57.842065 0.000000 0.000000 1.000000 1.000000 1.000000
142 1 68.246179 32.481920 68.246179 32.481920 -0.000000 0.000000 1.000000 1.000000 1.000000
143 1 175.870386 11.445469 175.870386 11.445469 0.000000 0.000000 1.000000 1.000000 1.000000
144 1 17.246321 82.161573 17.246321 82.161573 -0.000000 0.000000 1.000000 1.000000 1.000000
145 1 195.222026 45.640101 195.222026 45.640101 -0.000000 0.000000 1.000000 1.000000 1.000000
146 1 209.292078 190.317566 -21.284205 190.317566 -0.000000 0.000000 1.000000 1.000000 1.000000
147 1 215.665659 58.149109 215.665659 58.149109 -0.000000 -0.000000 1.000000 1.000000 1.000000
148 1 225.597177 157.821735 225.597177 157.821735 -0.000000 -0.000000 1.000000 1.000000 1.000000
149 1 120.092599 9.990449 120.092599 240.566732 0.000000 -0.000000 1.000000 1.000000 1.000000
150 1 84.480652 37.284079 84.480652 37.284079 0.000000 0.000000 1.000000 1.000000 1.000000
151 1 104.980366 5.350411 104.980366 5.350411 -0.000000 0.000000 1.000000 1.000000 1.000000
152 1 16.509614 131.549115 16.509614 131.549115 0.000000 -0.000000 1.000000 1.000000 1.000000
153 1 144.117706 113.863180 144.117706 113.863180 0.000000 0.000000 1.000000 1.000000 1.000000
154 1 204.581497 17.453506 204.581497 17.453506 0.000000 0.000000 1.000000 1.000000 1.000000
155 1 82.180405 13.349290 82.180405 13.349290 0.000000 0.000000 1.000000 1.000000 1.000000
156 1 173.963412 170.620501 173.963412 170.620501 0.000000 -0.000000 1.000000 1.000000 1.000000
157 1 23.150906 69.663893 23.150906 69.663893 0.000000 0.000000 1.000000 1.000000 1.000000
158 1 195.833964 129.138766 195.833964 129.138766 -0.000000 0.000000 1.000000 1.000000 1.000000
159 1 142.558530 226.485981 142.558530 226.485981 0.000000 0.000000 1.000000 1.000000 1.000000
160 1 123.299196 151.396670 123.299196 151.396670 0.000000 0.000000 1.000000 1.000000 1.000000
161 1 60.128880 55.414625 60.128880 55.414625 0.000000 -0.000000 1.000000 1.000000 1.000000
162 1 185.271666 12.366617 185.271666 242.942900 -0.000000 0.000000 1.000000 1.000000 1.000000
163 1 81.223595 223.453263 81.223595 223.453263 -0.000000 -0.000000 1.000000 1.000000 1.000000
164 1 147.760134 56.313637 147.760134 56.313637 0.000000 -0.000000 1.000000 1.000000 1.000000
165 1 3.449715 136.164693 3.449715 136.164693 0.000000 0.000000 1.000000 1.000000 1.000000
166 1 163.335848 148.532611 163.335848 148.532611 0.000000 -0.000000 1.000000 1.000000 1.000000
167 1 214.664975 226.799521 214.664975 226.799521 -0.000000 0.000000 1.000000 1.000000 1.000000
168 1 52.311815 186.993411 52.311815 186.993411 0.000000 -0.000000 1.000000 1.000000 1.000000
169 1 75.071068 224.214688 75.071068 224.214688 -0.000000 0.000000 1.000000 1.000000 1.000000
170 1 8.843303 178.167791 239.419586 178.167791 0.000000 0.000000 1.000000 1.000000 1.000000
171 1 225.382063 170.200108 225.382063 170.200108 -0.000000 0.000000 1.000000 1.000000 1.000000
172 1 151.620142 14.630172 151.620142 245.206455 -0.000000 0.000000 1.000000 1.000000 1.000000
173 1 44.161262 119.071316 44.161262 119.071316 -0.000002 -0.000001 1.000000 1.000000 1.000000
174 1 46.679544 92.894333 46.679544 92.894333 -0.000000 -0.000000 1.000000 1.000000 1.000000
175 1 176.625258 202.522855 176.625258 202.522855 -0.000000 0.000000 1.000000 1.000000 1.000000
176 1 147.519928 52.720610 147.519928 52.720610 0.000000 0.000000 1.000000 1.000000 1.000000
177 1 157.376988 22.564967 157.376988 22.564967 -0.000000 0.000000 1.000000 1.000000 1.000000
178 1 194.630608 150.717482 194.630608 150.717482 -0.000000 -0.000000 1.000000 1.000000 1.000000
179 1 176.684062 182.726102 176.684062 182.726102 -0.000000 0.000000 1.000000 1.000000 1.000000
180 1 56.571980 31.692776 56.571980 31.692776 0.000000 0.000000 1.000000 1.000000 1.000000
181 1 148.197612 107.943248 148.197612 107.943248 0.000000 -0.000000 1.000000 1.000000 1.000000
182 1 8.721709 21.851063 8.721709 21.851063 0.000000 -0.000000 1.000000 1.000000 1.000000
183 1 98.171829 99.664544 98.171829 99.664544 0.000000 -0.000000 1.000000 1.000000 1.000000
184 1 3.345306 48.951486 3.345306 48.951486 -0.000000 -0.000000 1.000000 1.000000 1.000000
185 1 43.904985 165.002329 43.904985 165.002329 -0.000000 -0.000000 1.000000 1.000000 1.000000
186 1 195.904558 77.225790 195.904558 77.225790 -0.000000 0.000000 1.000000 1.000000 1.000000
187 1 141.377272 15.187122 141.377272 15.187122 0.000000 0.000000 1.000000 1.000000 1.000000
188 1 134.923494 213.411746 134.923494 -17.164537 -0.000000 -0.000000 1.000000 1.000000 1.000000
189 1 27.771535 83.852324 27.771535 83.852324 -0.000000 0.000000 1.000000 1.000000 1.000000
190 1 19.190534 101.170652 249.766817 101.170652 0.000000 -0.000000 1.000000 1.000000 1.000000
191 1 63.209226 59.240658 63.209226 59.240658 0.000000 0.000000 1.000000 1.000000 1.000000
192 1 74.043536 19.931170 74.043536 19.931170 -0.000000 0.000000 1.000000 1.000000 1.000000
193 1 22.633976 22.134328 22.633976 22.134328 0.000000 -0.000000 1.000000 1.000000 1.000000
194 1 183.624899 210.452910 183.624899 210.452910 0.000000 0.000000 1.000000 1.000000 1.000000
195 1 133.376794 183.938706 133.376794 183.938706 0.000000 0.000000 1.000000 1.000000 1.000000
196 1 67.116363 218.586297 67.116363 -11.989986 0.000000 -0.000000 1.000000 1.000000 1.000000
197 1 124.182703 222.371092 124.182703 222.371092 0.000000 0.000000 1.000000 1.000000 1.000000
198 1 81.294376 120.989584 81.294376 120.989584 0.000000 0.000000 1.000000 1.000000 1.000000
199 1 43.837384 202.253550 43.837384 202.253550 0.000000 -0.000000 1.000000 1.000000 1.000000
200 1 100.122684 45.167554 100.122684 45.167554 0.000000 0.000000 1.000000 1.000000 1.000000
201 1 98.702786 47.334221 98.702786 47.334221 -0.000000 -0.000000 1.000000 1.000000 1.000000
202 1 72.507111 206.359521 72.507111 206.359521 -0.000000 -0.000000 1.000000 1.000000 1.000000
203 1 203.500106 206.422381 -27.076177 206.422381 -0.000000 -0.000000 1.000000 1.000000 1.000000
204 1 170.530573 50.742268 170.530573 50.742268 -0.000000 0.000000 1.000000 1.000000 1.000000
205 1 105.684123 15.506063 105.684123 15.506063 0.000000 -0.000000 1.000000 1.000000 1.000000
206 1 107.369592 124.867499 107.369592 124.867499 -0.000000 0.000000 1.000000 1.000000 1.000000
207 1 208.728251 127.296627 208.728251 127.296627 0.000000 -0.000000 1.000000 1.000000 1.000000
208 1 196.630540 61.341207 196.630540 61.341207 0.000000 -0.000000 1.000000 1.000000 1.000000
209 1 51.191501 85.034081 51.191501 85.034081 0.000000 -0.000000 1.000000 1.000000 1.000000
210 1 177.375007 136.149312 177.375007 136.149312 -0.000000 -0.000000 1.000000 1.000000 1.000000
211 1 80.813145 151.949358 80.813145 151.949358 -0.000000 -0.000000 1.000000 1.000000 1.000000
212 1 123.349395 63.085579 123.349395 63.085579 0.000000 0.000000 1.000000 1.000000 1.000000
213 1 92.824033 183.479331 92.824033 183.479331 0.000000 0.000000 1.000000 1.000000 1.000000
214 1 119.996436 31.314177 119.996436 31.314177 -0.000000 0.000000 1.000000 1.000000 1.000000
215 1 15.803561 60.203714 246.379844 60.203714 0.000000 -0.000000 1.000000 1.000000 1.000000
216 1 226.444709 2.016302 -4.131574 232.592585 0.000000 0.000000 1.000000 1.000000 1.000000
217 1 112.224711 210.273347 112.224711 210.273347 0.000000 0.000000 1.000000 1.000000 1.000000
218 1 192.127441 209.295391 192.127441 209.295391 -0.000000 0.000000 1.000000 1.000000 1.000000
219 1 86.662879 224.668247 86.662879 224.668247 -0.000000 0.000000 1.000000 1.000000 1.000000
220 1 203.558736 209.258509 203.558736 -21.317774 -0.000000 0.000000 1.000000 1.000000 1.000000
221 1 230.462928 86.809942 230.462928 86.809942 -0.000000 0.000000 1.000000 1.000000 1.000000
222 1 82.931436 32.280171 82.931436 32.280171 0.000000 -0.000000 1.000000 1.000000 1.000000
223 1 175.164009 102.923114 175.164009 102.923114 -0.000000 0.000000 1.000000 1.000000 1.000000
224 1 217.768943 13.635386 217.768943 13.635386 -0.000000 -0.000000 1.000000 1.000000 1.000000
225 1 189.416635 2.350030 189.416635 2.350030 0.000000 0.000000 1.000000 1.000000 1.000000
226 1 218.464017 154.513417 -12.112266 154.513417 -0.000000 -0.000000 1.000000 1.000000 1.000000
227 1 166.027734 211.001420 166.027734 211.001420 -0.000000 -0.000000 1.000000 1.000000 1.000000
228 1 170.049632 211.438172 170.049632 211.438172 0.000000 -0.000000 1.000000 1.000000 1.000000
229 1 4.727984 203.171089 235.304267 203.171089 -0.000000 -0.000000 1.000000 1.000000 1.000000
230 1 115.320428 107.789293 115.320428 107.789293 -0.000000 0.000000 1.000000 1.000000 1.000000
231 1 134.120808 99.421897 134.120808 99.421897 0.000000 -0.000000 1.000000 1.000000 1.000000
232 1 137.155370 134.976184 137.155370 134.976184 -0.000000 -0.000000 1.000000 1.000000 1.000000
233 1 152.227378 123.238256 152.227378 123.238256 -0.000000 -0.000000 1.000000 1.000000 1.000000
234 1 31.955685 193.130702 31.955685 193.130702 -0.000000 0.000000 1.000000 1.000000 1.000000
235 1 105.205924 192.529848 105.205924 192.529848 -0.000000 0.000000 1.000000 1.000000 1.000000
236 1 82.884777 20.794832 82.884777 20.794832 0.000000 -0.000000 1.000000 1.000000 1.000000
237 1 142.514511 65.679473 142.514511 65.679473 0.000000 0.000000 1.000000 1.000000 1.000000
238 1 24.522833 95.153132 24.522833 95.153132 0.000000 0.000000 1.000000 1.000000 1.000000
239 1 31.440525 87.849795 31.440525 87.849795 0.000000 0.000000 1.000000 1.000000 1.000000
240 1 28.912578 145.494031 28.912578 145.494031 -0.000000 0.000000 1.000000 1.000000 1.000000
241 1 127.234271 44.954010 127.234271 44.954010 -0.000000 0.000000 1.000000 1.000000 1.000000
242 1 191.568416 52.934702 191.568416 52.934702 0.000000 -0.000000 1.000000 1.000000 1.000000
243 1 197.730843 210.586491 -32.845440 210.586491 0.000000 0.000000 1.000000 1.000000 1.000000
244 1 52.950843 129.836140 52.950843 129.836140 0.000000 0.000001 1.000000 1.000000 1.000000
245 1 127.038926 177.526795 127.038926 177.526795 -0.000000 -0.000000 1.000000 1.000000 1.000000
246 1 148.161609 155.690732 148.161609 155.690732 0.000000 -0.000000 1.000000 1.000000 1.000000
247 1 189.528760 179.294493 189.528760 179.294493 0.000000 -0.000000 1.000000 1.000000 1.000000
248 1 8.218274 222.595445 238.794557 -7.980838 -0.000000 -0.000000 1.000000 1.000000 1.000000
249 1 190.827290 127.465875 190.827290 127.465875 0.000000 -0.000000 1.000000 1.000000 1.000000
250 1 213.713894 122.063508 213.713894 122.063508 0.000000 -0.000000 1.000000 1.000000 1.000000
251 1 52.832122 0.396186 52.832122 0.396186 0.000000 -0.000000 1.000000 1.000000 1.000000
252 1 164.137885 202.218523 164.137885 202.218523 0.000000 0.000000 1.000000 1.000000 1.000000
253 1 10.888659 203.844382 10.888659 203.844382 -0.000000 0.000000 1.000000 1.000000 1.000000
254 1 223.050180 134.740900 223.050180 134.740900 -0.000000 0.000000 1.000000 1.000000 1.000000
255 1 113.305673 28.457870 113.305673 28.457870 0.000000 0.000000 1.000000 1.000000 1.000000
256 1 107.809145 195.365495 107.809145 195.365495 -0.000000 0.000000 1.000000 1.000000 1.000000
257 1 200.244524 211.482862 200.244524 211.482862 -0.000000 -0.000000 1.000000 1.000000 1.000000
258 1 160.452674 221.616780 160.452674 221.616780 -0.000000 -0.000000 1.000000 1.000000 1.000000
259 1 2.483322 143.987067 2.483322 143.987067 -0.000000 0.000000 1.000000 1.000000 1.000000
260 1 74.666910 27.867326 74.666910 27.867326 0.000000 -0.000000 1.000000 1.000000 1.000000
261 1 183.919703 74.642256 183.919703 74.642256 -0.000000 0.000000 1.000000 1.000000 1.000000
262 1 26.994614 9.454583 26.994614 9.454583 -0.000000 0.000000 1.000000 1.000000 1.000000
263 1 167.286263 60.587968 167.286263 60.587968 -0.000000 -0.000000 1.000000 1.000000 1.000000
264 1 148.041531 72.630914 148.041531 72.630914 0.000000 0.000000 1.000000 1.000000 1.000000
265 1 157.067605 29.129031 157.067605 29.129031 0.000000 0.000000 1.000000 1.000000 1.000000
266 1 151.263554 55.744552 151.263554 55.744552 -0.000000 0.000000 1.000000 1.000000 1.000000
267 1 202.600247 32.865330 202.600247 32.865330 0.000000 -0.000000 1.000000 1.000000 1.000000
268 1 28.137221 74.962946 28.137221 74.962946 -0.000000 -0.000000 1.000000 1.000000 1.000000
269 1 180.496618 168.026824 180.496618 168.026824 -0.000000 0.000000 1.000000 1.000000 1.000000
270 1 113.472360 64.153390 113.472360 64.153390 -0.000000 0.000000 1.000000 1.000000 1.000000
271 1 20.643366 215.319714 20.643366 215.319714 0.000000 -0.000000 1.000000 1.000000 1.000000
272 1 146.703836 209.194105 146.703836 209.194105 0.000000 -0.000000 1.000000 1.000000 1.000000
273 1 55.112911 107.706284 55.112911 107.706284 -0.000000 0.000000 1.000000 1.000000 1.000000
274 1 76.907364 70.845472 76.907364 70.845472 -0.000000 -0.000000 1.000000 1.000000 1.000000
275 1 20.979800 81.547610 20.979800 81.547610 0.000000 0.000000 1.000000 1.000000 1.000000
276 1 204.944055 53.431493 -25.632228 53.431493 -0.000000 -0.000000 1.000000 1.000000 1.000000
277 1 101.752245 154.219919 101.752245 154.219919 -0.000000 0.000000 1.000000 1.000000 1.000000
278 1 25.370021 2.608643 25.370021 233.184926 -0.000000 -0.000000 1.000000 1.000000 1.000000
279 1 116.648505 116.521784 116.648505 116.521784 0.000000 0.000000 1.000000 1.000000 1.000000
280 1 90.354754 67.032723 90.354754 67.032723 0.000000 0.000000 1.000000 1.000000 1.000000
281 1 178.138200 160.507459 178.138200 160.507459 0.000000 0.000000 1.000000 1.000000 1.000000
282 1 120.822995 204.925003 120.822995 204.925003 0.000000 -0.000000 1.000000 1.000000 1.000000
283 1 191.811058 172.027506 -38.765225 172.027506 0.000000 -0.000000 1.000000 1.000000 1.000000
284 1 136.674629 229.728355 136.674629 229.728355 -0.000000 -0.000000 1.000000 1.000000 1.000000
285 1 130.069622 57.199187 130.069622 57.199187 -0.000000 -0.000000 1.000000 1.000000 1.000000
286 1 69.055040 134.710412 69.055040 134.710412 0.000000 -0.000000 1.000000 1.000000 1.000000
287 1 52.253764 115.654275 52.253764 115.654275 0.000000 -0.000000 1.000000 1.000000 1.000000
288 1 103.363692 14.518405 103.363692 14.518405 0.000000 0.000000 1.000000 1.000000 1.000000
289 1 133.046776 56.589384 133.046776 56.589384 0.000000 -0.000000 1.000000 1.000000 1.000000
290 1 51.041544 148.872740 51.041544 148.872740 -0.000000 0.000000 1.000000 1.000000 1.000000
291 1 180.761787 29.828987 180.761787 29.828987 -0.000000 0.000000 1.000000 1.000000 1.000000
292 1 222.216153 15.349242 -8.360130 15.349242 -0.000000 -0.000000 1.000000 1.000000 1.000000
293 1 19.402328 98.433021 19.402328 98.433021 -0.000000 0.000000 1.000000 1.000000 1.000000
294 1 211.677795 145.327329 211.677795 145.327329 0.000000 0.000000 1.000000 1.000000 1.000000
295 1 126.108111 173.536868 126.108111 173.536868 0.000000 0.000000 1.000000 1.000000 1.000000
296 1 112.156044 146.567923 112.156044 146.567923 -0.000000 -0.000000 1.000000 1.000000 1.000000
297 1 39.701623 176.132200 39.701623 176.132200 -0.000000 0.000000 1.000000 1.000000 1.000000
298 1 157.786814 118.482653 157.786814 118.482653 -0.000000 0.000000 1.000000 1.000000 1.000000
299 1 115.794371 182.813546 115.794371 182.813546 -0.000000 0.000000 1.000000 1.000000 1.000000
300 1 42.879699 130.972491 42.879699 130.972491 -0.000000 -0.000000 1.000000 1.000000 1.000000
301 1 113.317948 59.729712 113.317948 59.729712 -0.000000 -0.000000 1.000000 1.000000 1.000000
302 1 92.357219 76.217882 92.357219 76.217882 -0.000000 0.000000 1.000000 1.000000 1.000000
303 1 31.479582 33.865073 31.479582 33.865073 -0.000000 -0.000000 1.000000 1.000000 1.000000
304 1 174.138573 78.210472 174.138573 78.210472 -0.000000 0.000000 1.000000 1.000000 1.000000
305 1 87.101841 102.788829 87.101841 102.788829 0.000000 -0.000000 1.000000 1.000000 1.000000
306 1 169.772125 6.544482 169.772125 237.120765 0.000000 -0.000000 1.000000 1.000000 1.000000
307 1 181.427789 154.197333 181.427789 154.197333 0.000000 0.000000 1.000000 1.000000 1.000000
308 1 88.978737 182.407335 88.978737 182.407335 -0.000000 -0.000000 1.000000 1.000000 1.000000
309 1 101.304895 62.849872 101.304895 62.849872 0.000000 0.000000 1.000000 1.000000 1.000000
310 1 173.942417 106.105073 173.942417 106.105073 -0.000000 -0.000000 1.000000 1.000000 1.000000
311 1 211.371415 134.153474 211.371415 134.153474 0.000000 0.000000 1.000000 1.000000 1.000000
312 1 67.625898 197.995449 67.625898 197.995449 0.000000 -0.000000 1.000000 1.000000 1.000000
313 1 117.105595 10.109348 117.105595 10.109348 -0.000000 0.000000 1.000000 1.000000 1.000000
314 1 40.950811 153.582132 40.950811 153.582132 -0.000000 0.000000 1.000000 1.000000 1.000000
315 1 25.607070 34.078135 25.607070 34.078135 0.000000 0.000000 1.000000 1.000000 1.000000
316 1 53.944656 170.222043 53.944656 170.222043 -0.000000 0.000000 1.000000 1.000000 1.000000
317 1 220.033108 195.409820 220.033108 -35.166463 -0.000000 0.000000 1.000000 1.000000 1.000000