ITEM: TIMESTEP
1000.000000
ITEM: NUMBER OF ATOMS
5000
ITEM: BOX BOUNDS xy xz yz
0 314.222492 0
0 314.222492 0
0 2 0
ITEM: ATOMS id type x y xu yu vx vy radius m z
0 1 304.823463 48.449148 304.823463 48.449148 -0.000000 -0.000000 1.000000 1.000000 1.000000
1 1 148.380779 11.713691 148.380779 11.713691 -0.000000 -0.000000 1.000000 1.000000 1.000000
2 1 104.904636 154.688260 104.904636 154.688260 0.000000 0.000000 1.000000 1.000000 1.000000
3 1 54.448150 181.895795 54.448150 181.895795 -0.000000 -0.000000 1.000000 1.000000 1.000000
4 1 267.171096 36.958248 267.171096 36.958248 0.000000 -0.000000 1.000000 1.000000 1.000000
5 1 209.641996 255.709047 209.641996 255.709047 0.000000 -0.000000 1.000000 1.000000 1.000000
6 1 112.877960 29.657258 112.877960 29.657258 -0.000000 -0.000000 1.000000 1.000000 1.000000
7 1 253.618976 75.751485 253.618976 75.751485 0.000000 -0.000000 1.000000 1.000000 1.000000
8 1 22.703936 227.683289 22.703936 227.683289 0.000000 0.000000 1.000000 1.000000 1.000000
9 1 278.534462 219.580234 278.534462 219.580234 0.000000 0.000000 1.000000 1.000000 1.000000
10 1 162.772905 147.112590 162.772905 147.112590 0.000000 -0.000000 1.000000 1.000000 1.000000
11 1 106.214068 200.998894 106.214068 200.998894 0.000000 -0.000000 1.000000 1.000000 1.000000
12 1 190.058673 44.318271 190.058673 44.318271 -0.000000 0.000000 1.000000 1.000000 1.000000
13 1 299.371856 248.281646 299.371856 248.281646 0.000000 -0.000000 1.000000 1.000000 1.000000
14 1 307.472379 244.866245 307.472379 244.866245 -0.000000 0.000000 1.000000 1.000000 1.000000
15 1 223.738424 190.500887 223.738424 190.500887 0.000000 -0.000000 1.000000 1.000000 1.000000
16 1 209.378738 208.344318 209.378738 208.344318 -0.000000 0.000000 1.000000 1.000000 1.000000
17 1 36.838686 103.968199 36.838686 103.968199 0.000000 0.000000 1.000000 1.000000 1.000000
18 1 254.687096 91.850528 254.687096 91.850528 0.000000 0.000000 1.000000 1.000000 1.000000
19 1 241.933670 221.561996 241.933670 221.561996 -0.000000 -0.000000 1.000000 1.000000 1.000000
20 1 251.708512 238.825457 251.708512 238.825457 -0.000000 -0.000000 1.000000 1.000000 1.000000
21 1 220.538787 301.059108 220.538787 301.059108 0.000000 -0.000000 1.000000 1.000000 1.000000
22 1 91.265406 77.177324 91.265406 77.177324 0.000000 0.000000 1.000000 1.000000 1.000000
23 1 115.514270 313.534244 115.514270 -0.688248 -0.000000 0.000000 1.000000 1.000000 1.000000
24 1 290.411720 14.258565 290.411720 14.258565 0.000000 -0.000000 1.000000 1.000000 1.000000
25 1 95.031302 59.520288 95.031302 59.520288 0.000000 -0.000000 1.000000 1.000000 1.000000
26 1 114.778650 173.521836 114.778650 173.521836 -0.000000 0.000000 1.000000 1.000000 1.000000
27 1 131.133245 227.205649 131.133245 227.205649 0.000000 0.000000 1.000000 1.000000 1.000000
28 1 305.967108 87.028000 305.967108 87.028000 -0.000000 0.000000 1.000000 1.000000 1.000000
29 1 89.236935 186.771634 89.236935 186.771634 0.000000 -0.000000 1.000000 1.000000 1.000000
30 1 169.333697 312.430783 169.333697 -1.791709 -0.000000 -0.000000 1.000000 1.000000 1.000000
31 1 57.445305 39.047694 57.445305 39.047694 -0.000000 -0.000000 1.000000 1.000000 1.000000
32 1 239.820142 173.976330 239.820142 173.976330 -0.000000 -0.000000 1.000000 1.000000 1.000000
33 1 299.832696 198.016007 299.832696 198.016007 -0.000000 -0.000000 1.000000 1.000000 1.000000
34 1 174.229725 255.956238 174.229725 255.956238 0.000000 0.000000 1.000000 1.000000 1.000000
35 1 99.346867 203.114864 99.346867 203.114864 0.000000 0.000000 1.000000 1.000000 1.000000
36 1 227.580662 203.651121 227.580662 203.651121 0.000000 -0.000000 1.000000 1.000000 1.000000
37 1 228.685922 175.638135 228.685922 175.638135 0.000000 0.000000 1.000000 1.000000 1.000000
38 1 176.337800 19.143585 176.337800 19.143585 -0.000000 -0.000000 1.000000 1.000000 1.000000
39 1 283.846116 313.060485 283.846116 313.060485 0.000000 -0.000000 1.000000 1.000000 1.000000
40 1 100.608642 115.593484 100.608642 115.593484 0.000000 -0.000000 1.000000 1.000000 1.000000
41 1 143.015268 145.988243 143.015268 145.988243 -0.000000 0.000000 1.000000 1.000000 1.000000
42 1 313.168730 31.497750 -1.053762 31.497750 0.000000 0.000000 1.000000 1.000000 1.000000
43 1 17.365511 285.298148 17.365511 285.298148 -0.000000 -0.000000 1.000000 1.000000 1.000000
44 1 55.213853 167.859022 55.213853 167.859022 -0.000000 0.000000 1.000000 1.000000 1.000000
45 1 92.439087 27.138803 92.439087 27.138803 0.000000 0.000000 1.000000 1.000000 1.000000
46 1 120.275719 311.682446 120.275719 311.682446 0.000000 0.000000 1.000000 1.000000 1.000000
47 1 70.746211 23.812202 70.746211 23.812202 -0.000000 0.000000 1.000000 1.000000 1.000000
48 1 240.691855 73.306904 240.691855 73.306904 -0.000000 0.000000 1.000000 1.000000 1.000000
49 1 300.403375 312.423488 300.403375 312.423488 -0.000000 0.000000 1.000000 1.000000 1.000000
50 1 121.115183 208.171259 121.115183 208.171259 -0.000000 -0.000000 1.000000 1.000000 1.000000
51 1 288.047538 295.405962 288.047538 295.405962 -0.000000 0.000000 1.000000 1.000000 1.000000
52 1 158.182517 30.149353 158.182517 30.149353 0.000000 -0.000000 1.000000 1.000000 1.000000
53 1 233.400195 303.652002 233.400195 303.652002 -0.000000 0.000000 1.000000 1.000000 1.000000
54 1 218.258085 199.505128 218.258085 199.505128 0.000000 -0.000000 1.000000 1.000000 1.000000
55 1 219.180264 295.505202 219.180264 295.505202 -0.000000 -0.000000 1.000000 1.000000 1.000000
56 1 137.635937 300.032735 137.635937 300.032735 -0.000000 0.000000 1.000000 1.000000 1.000000
57 1 264.533216 89.158534 264.533216 89.158534 -0.000000 0.000000 1.000000 1.000000 1.000000
58 1 216.412638 220.971248 216.412638 220.971248 0.000000 0.000000 1.000000 1.000000 1.000000
59 1 197.068012 271.658912 197.068012 271.658912 -0.000000 0.000000 1.000000 1.000000 1.000000
60 1 138.937158 191.717312 138.937158 191.717312 -0.000000 -0.000000 1.000000 1.000000 1.000000
61 1 257.954380 30.505508 257.954380 30.505508 0.000000 0.000000 1.000000 1.000000 1.000000
62 1 170.029277 165.929448 170.029277 165.929448 -0.000000 -0.000000 1.000000 1.000000 1.000000
63 1 248.496219 129.591951 248.496219 129.591951 -0.000000 -0.000000 1.000000 1.000000 1.000000
64 1 131.879629 176.502441 131.879629 176.502441 0.000000 0.000000 1.000000 1.000000 1.000000
65 1 203.730876 264.431242 203.730876 264.431242 -0.000000 -0.000000 1.000000 1.000000 1.000000
66 1 45.459583 72.697100 45.459583 72.697100 0.000000 -0.000000 1.000000 1.000000 1.000000
67 1 23.569464 257.339236 23.569464 257.339236 -0.000000 -0.000000 1.000000 1.000000 1.000000
68 1 69.428107 46.430853 69.428107 46.430853 0.000000 -0.000000 1.000000 1.000000 1.000000
69 1 9.173887 305.277809 9.173887 -8.944683 0.000000 -0.000000 1.000000 1.000000 1.000000
70 1 165.729516 64.446731 165.729516 64.446731 -0.000000 0.000000 1.000000 1.000000 1.000000
71 1 32.685824 29.330726 32.685824 29.330726 -0.000000 -0.000000 1.000000 1.000000 1.000000
72 1 267.450609 217.690634 267.450609 217.690634 -0.000000 -0.000000 1.000000 1.000000 1.000000
73 1 74.314673 58.883818 74.314673 58.883818 0.000000 -0.000000 1.000000 1.000000 1.000000
74 1 210.705698 195.207480 210.705698 195.207480 0.000000 0.000000 1.000000 1.000000 1.000000
75 1 116.346456 127.636365 116.346456 127.636365 -0.000000 0.000000 1.000000 1.000000 1.000000
76 1 213.486209 210.820823 213.486209 210.820823 -0.000000 0.000000 1.000000 1.000000 1.000000
77 1 153.696310 52.528118 153.696310 52.528118 -0.000000 0.000000 1.000000 1.000000 1.000000
78 1 167.260399 298.425762 167.260399 298.425762 -0.000000 -0.000000 1.000000 1.000000 1.000000
79 1 178.150558 302.647758 178.150558 -11.574734 -0.000000 -0.000000 1.000000 1.000000 1.000000
80 1 119.089039 267.664472 119.089039 267.664472 0.000000 -0.000000 1.000000 1.000000 1.000000
81 1 313.347762 91.141239 313.347762 91.141239 0.000000 -0.000000 1.000000 1.000000 1.000000
82 1 188.717116 280.483897 188.717116 280.483897 0.000000 -0.000000 1.000000 1.000000 1.000000
83 1 186.215058 157.511984 186.215058 157.511984 -0.000000 0.000000 1.000000 1.000000 1.000000
84 1 93.460591 153.087199 93.460591 153.087199 0.000000 -0.000000 1.000000 1.000000 1.000000
85 1 146.729867 37.681692 146.729867 37.681692 0.000000 0.000000 1.000000 1.000000 1.000000
86 1 169.241765 275.104603 169.241765 275.104603 -0.000000 -0.000000 1.000000 1.000000 1.000000
87 1 19.915908 172.279786 19.915908 172.279786 -0.000000 0.000000 1.000000 1.000000 1.000000
88 1 21.200001 258.947691 21.200001 258.947691 -0.000000 -0.000000 1.000000 1.000000 1.000000
89 1 207.860696 57.693602 207.860696 57.693602 -0.000000 0.000000 1.000000 1.000000 1.000000
90 1 128.120431 153.241062 128.120431 153.241062 -0.000000 -0.000000 1.000000 1.000000 1.000000
91 1 257.581809 249.169300 257.581809 249.169300 0.000000 -0.000000 1.000000 1.000000 1.000000
92 1 262.172342 80.746374 262.172342 80.746374 0.000000 -0.000000 1.000000 1.000000 1.000000
93 1 71.243768 19.145997 71.243768 19.145997 0.000000 -0.000000 1.000000 1.000000 1.000000
94 1 198.834558 200.770748 198.834558 200.770748 0.000000 0.000000 1.000000 1.000000 1.000000
95 1 142.674930 187.995122 142.674930 187.995122 -0.000000 -0.000000 1.000000 1.000000 1.000000
96 1 283.330403 208.304250 283.330403 208.304250 -0.000000 0.000000 1.000000 1.000000 1.000000
97 1 156.102788 159.572246 156.102788 159.572246 -0.000000 -0.000000 1.000000 1.000000 1.000000
98 1 167.211993 101.722034 167.211993 101.722034 0.000000 -0.000000 1.000000 1.000000 1.000000
99 1 61.062864 153.797271 61.062864 153.797271 0.000000 0.000000 1.000000 1.000000 1.000000
100 1 276.568472 234.042290 276.568472 234.042290 0.000000 0.000000 1.000000 1.000000 1.000000
101 1 66.005040 14.250175 66.005040 14.250175 0.000000 -0.000000 1.000000 1.000000 1.000000
102 1 81.209889 137.907462 81.209889 137.907462 0.000000 0.000000 1.000000 1.000000 1.000000
103 1 231.790248 164.799225 231.790248 164.799225 -0.000000 0.000000 1.000000 1.000000 1.000000
104 1 102.991298 192.741240 102.991298 192.741240 0.000000 -0.000000 1.000000 1.000000 1.000000
105 1 143.318135 163.707730 143.318135 163.707730 0.000000 0.000000 1.000000 1.000000 1.000000
106 1 166.753439 275.886542 166.753439 275.886542 0.000000 -0.000000 1.000000 1.000000 1.000000
107 1 109.079181 247.731624 109.079181 247.731624 0.000000 -0.000000 1.000000 1.000000 1.000000
108 1 27.646221 14.477404 27.646221 14.477404 -0.000000 -0.000000 1.000000 1.000000 1.000000
109 1 58.001364 26.313247 58.001364 26.313247 0.000000 -0.000000 1.000000 1.000000 1.000000
110 1 166.010430 53.727656 166.010430 53.727656 0.000000 -0.000000 1.000000 1.000000 1.000000
111 1 22.457362 104.032094 22.457362 104.032094 0.000000 0.000000 1.000000 1.000000 1.000000
112 1 187.172392 52.375439 187.172392 52.375439 0.000000 -0.000000 1.000000 1.000000 1.000000
113 1 154.183643 216.645152 154.183643 216.645152 0.000000 0.000000 1.000000 1.000000 1.000000
114 1 191.577402 169.145636 191.577402 169.145636 -0.000000 -0.000000 1.000000 1.000000 1.000000
115 1 194.565509 236.979598 194.565509 236.979598 -0.000000 -0.000000 1.000000 1.000000 1.000000
116 1 195.177780 216.801428 195.177780 216.801428 0.000000 -0.000000 1.000000 1.000000 1.000000
117 1 148.557992 125.121416 148.557992 125.121416 -0.000000 -0.000000 1.000000 1.000000 1.000000
118 1 129.883501 305.546206 129.883501 -8.676286 0.000000 0.000000 1.000000 1.000000 1.000000
119 1 66.774888 285.790263 66.774888 285.790263 -0.000000 -0.000000 1.000000 1.000000 1.000000
120 1 255.861543 136.421355 255.861543 136.421355 0.000000 -0.000000 1.000000 1.000000 1.000000
121 1 102.357113 264.486332 102.357113 264.486332 0.000000 0.000000 1.000000 1.000000 1.000000
122 1 74.456819 130.603956 74.456819 130.603956 0.000000 0.000000 1.000000 1.000000 1.000000
123 1 118.703640 30.626852 118.703640 30.626852 0.000000 0.000000 1.000000 1.000000 1.000000
124 1 176.731603 234.728931 176.731603 234.728931 -0.000000 -0.000000 1.000000 1.000000 1.000000
125 1 58.452262 268.667310 58.452262 268.667310 0.000000 -0.000000 1.000000 1.000000 1.000000
126 1 120.372181 11.840530 120.372181 11.840530 -0.000000 0.000000 1.000000 1.000000 1.000000
127 1 118.197558 238.553086 118.197558 238.553086 0.000000 -0.000000 1.000000 1.000000 1.000000
128 1 109.990361 93.236487 109.990361 93.236487 0.000000 -0.000000 1.000000 1.000000 1.000000
129 1 178.607106 165.346771 178.607106 165.346771 -0.000000 -0.000000 1.000000 1.000000 1.000000
130 1 49.354736 274.386768 49.354736 274.386768 -0.000000 0.000000 1.000000 1.000000 1.000000
131 1 289.822631 134.915710 -24.399861 134.915710 -0.000000 -0.000000 1.000000 1.000000 1.000000
132 1 191.274291 98.571098 191.274291 98.571098 -0.000000 -0.000000 1.000000 1.000000 1.000000
133 1 135.426664 136.561047 135.426664 136.561047 0.000000 0.000000 1.000000 1.000000 1.000000
134 1 254.006500 310.010363 254.006500 310.010363 -0.000000 0.000000 1.000000 1.000000 1.000000
135 1 113.074493 105.503165 113.074493 105.503165 0.000000 0.000000 1.000000 1.000000 1.000000
136 1 295.035230 218.506419 295.035230 218.506419 0.000000 0.000001 1.000000 1.000000 1.000000
137 1 40.673158 19.355451 40.673158 333.577943 0.000000 0.000000 1.000000 1.000000 1.000000
138 1 260.954740 208.394312 260.954740 208.394312 0.000000 0.000000 1.000000 1.000000 1.000000
139 1 200.760948 97.146599 200.760948 97.146599 -0.000000 -0.000000 1.000000 1.000000 1.000000
140 1 221.911696 282.703770 221.911696 282.703770 0.000000 -0.000000 1.000000 1.000000 1.000000
141 1 24.908867 277.687380 24.908867 277.687380 -0.000000 0.000000 1.000000 1.000000 1.000000
142 1 55.060938 161.995494 55.060938 161.995494 0.000000 0.000000 1.000000 1.000000 1.000000
143 1 277.412088 49.982000 277.412088 49.982000 0.000000 -0.000000 1.000000 1.000000 1.000000
144 1 173.736550 150.399043 173.736550 150.399043 0.000000 -0.000000 1.000000 1.000000 1.000000
145 1 107.406428 146.502883 107.406428 146.502883 0.000000 0.000000 1.000000 1.000000 1.000000
146 1 21.386825 38.851377 21.386825 38.851377 0.000000 -0.000000 1.000000 1.000000 1.000000
147 1 159.599842 251.945965 159.599842 251.945965 0.000000 0.000000 1.000000 1.000000 1.000000
148 1 172.741524 277.337700 172.741524 277.337700 -0.000000 0.000000 1.000000 1.000000 1.000000
149 1 224.993350 247.911771 224.993350 247.911771 -0.000000 -0.000000 1.000000 1.000000 1.000000
150 1 117.243058 212.965157 117.243058 212.965157 0.000000 -0.000000 1.000000 1.000000 1.000000
151 1 282.392516 130.320397 282.392516 130.320397 0.000000 0.000000 1.000000 1.000000 1.000000
152 1 191.526995 7.710069 191.526995 7.710069 -0.000000 0.000000 1.000000 1.000000 1.000000
153 1 103.359842 243.416002 103.359842 243.416002 -0.000000 -0.000000 1.000000 1.000000 1.000000
154 1 192.234233 175.229743 192.234233 175.229743 -0.000000 -0.000000 1.000000 1.000000 1.000000
155 1 74.828322 97.399616 74.828322 97.399616 -0.000000 0.000000 1.000000 1.000000 1.000000
156 1 37.045526 213.267463 37.045526 213.267463 0.000000 0.000000 1.000000 1.000000 1.000000
157 1 120.433346 66.153518 120.433346 66.153518 -0.000000 0.000000 1.000000 1.000000 1.000000
158 1 308.568553 229.985578 308.568553 229.985578 0.000000 -0.000000 1.000000 1.000000 1.000000
159 1 208.478276 269.704809 208.478276 269.704809 0.000000 0.000000 1.000000 1.000000 1.000000
160 1 90.875293 108.149217 90.875293 108.149217 0.000000 0.000000 1.000000 1.000000 1.000000
161 1 17.650554 5.385015 17.650554 5.385015 0.000000 -0.000000 1.000000 1.000000 1.000000
162 1 309.903184 253.049906 -4.319308 253.049906 -0.000000 0.000000 1.000000 1.000000 1.000000
163 1 49.519044 118.241914 49.519044 118.241914 0.000000 0.000000 1.000000 1.000000 1.000000
164 1 300.483980 84.239691 300.483980 84.239691 0.000000 0.000000 1.000000 1.000000 1.000000
165 1 187.255125 149.692964 187.255125 149.692964 0.000000 0.000000 1.000000 1.000000 1.000000
166 1 202.293256 176.588564 202.293256 176.588564 0.000000 0.000000 1.000000 1.000000 1.000000
167 1 50.780610 15.202277 50.780610 15.202277 -0.000000 0.000000 1.000000 1.000000 1.000000
168 1 225.059020 146.457628 225.059020 146.457628 0.000000 -0.000000 1.000000 1.000000 1.000000
169 1 4.603681 33.470741 4.603681 33.470741 -0.000000 -0.000000 1.000000 1.000000 1.000000
170 1 55.287368 243.494120 55.287368 243.494120 -0.000000 -0.000000 1.000000 1.000000 1.000000
171 1 234.214785 180.642642 234.214785 180.642642 -0.000000 -0.000000 1.000000 1.000000 1.000000
172 1 14.109500 1.778040 14.109500 316.000532 0.000000 -0.000000 1.000000 1.000000 1.000000
173 1 206.695626 70.561857 206.695626 70.561857 -0.000000 0.000000 1.000000 1.000000 1.000000
174 1 274.493929 298.453618 274.493929 298.453618 0.000000 -0.000000 1.000000 1.000000 1.000000
175 1 66.174288 102.435896 66.174288 102.435896 -0.000000 0.000000 1.000000 1.000000 1.000000
176 1 121.218099 90.615745 121.218099 90.615745 -0.000000 -0.000000 1.000000 1.000000 1.000000
177 1 99.438386 233.943933 99.438386 233.943933 -0.000000 0.000000 1.000000 1.000000 1.000000
178 1 0.480442 299.583178 0.480442 299.583178 0.000000 0.000000 1.000000 1.000000 1.000000
179 1 151.435323 85.664413 151.435323 85.664413 -0.000000 0.000000 1.000000 1.000000 1.000000
180 1 299.405067 307.381233 299.405067 307.381233 -0.000000 0.000000 1.000000 1.000000 1.000000
181 1 234.211191 151.739892 234.211191 151.739892 0.000000 -0.000000 1.000000 1.000000 1.000000
182 1 125.301762 47.346326 125.301762 47.346326 0.000000 -0.000000 1.000000 1.000000 1.000000
183 1 174.338864 312.630808 174.338864 312.630808 0.000000 0.000000 1.000000 1.000000 1.000000
184 1 36.788256 222.305534 36.788256 222.305534 -0.000000 0.000000 1.000000 1.000000 1.000000
185 1 49.307971 63.279836 49.307971 63.279836 -0.000000 -0.000000 1.000000 1.000000 1.000000
186 1 93.345927 264.258254 93.345927 264.258254 -0.000000 -0.000000 1.000000 1.000000 1.000000
187 1 91.794746 217.125664 91.794746 217.125664 -0.000000 0.000000 1.000000 1.000000 1.000000
188 1 161.234354 80.276463 161.234354 80.276463 -0.000000 -0.000000 1.000000 1.000000 1.000000
189 1 281.856296 47.203948 281.856296 47.203948 0.000000 0.000000 1.000000 1.000000 1.000000
190 1 231.092640 98.743927 231.092640 98.743927 0.000000 0.000000 1.000000 1.000000 1.000000
191 1 156.198994 266.562721 156.198994 266.562721 0.000000 -0.000000 1.000000 1.000000 1.000000
192 1 295.730255 124.810572 295.730255 124.810572 -0.000000 -0.000000 1.000000 1.000000 1.000000
193 1 77.224057 193.264089 77.224057 193.264089 -0.000000 0.000000 1.000000 1.000000 1.000000
194 1 128.385351 313.449544 128.385351 -0.772948 -0.000000 -0.000000 1.000000 1.000000 1.000000
195 1 108.808924 204.567763 108.808924 204.567763 0.000000 -0.000000 1.000000 1.000000 1.000000
196 1 149.368099 72.259367 149.368099 72.259367 -0.000000 -0.000000 1.000000 1.000000 1.000000
197 1 10.406603 99.744697 10.406603 99.744697 0.000000 0.000000 1.000000 1.000000 1.000000
198 1 196.797924 290.586017 196.797924 290.586017 0.000000 -0.000000 1.000000 1.000000 1.000000
199 1 268.025645 60.142711 268.025645 60.142711 -0.000000 0.000000 1.000000 1.000000 1.000000
200 1 124.335199 77.530637 124.335199 77.530637 0.000000 0.000000 1.000000 1.000000 1.000000
201 1 85.621364 305.399300 85.621364 305.399300 0.000000 0.000000 1.000000 1.000000 1.000000
202 1 46.328080 14.148437 46.328080 328.370929 0.000000 -0.000000 1.000000 1.000000 1.000000
203 1 312.440301 52.079197 312.440301 52.079197 0.000000 0.000000 1.000000 1.000000 1.000000
204 1 82.756662 179.655698 82.756662 179.655698 0.000000 0.000000 1.000000 1.000000 1.000000
205 1 14.924594 10.814132 14.924594 325.036624 -0.000000 0.000000 1.000000 1.000000 1.000000
206 1 233.735880 29.554257 233.735880 29.554257 -0.000000 -0.000000 1.000000 1.000000 1.000000
207 1 30.241019 294.167505 30.241019 294.167505 0.000000 0.000000 1.000000 1.000000 1.000000
208 1 203.564422 3.751644 203.564422 3.751644 -0.000000 0.000000 1.000000 1.000000 1.000000
209 1 149.032119 200.389698 149.032119 200.389698 -0.000000 0.000000 1.000000 1.000000 1.000000
210 1 282.512172 179.763959 282.512172 179.763959 0.000000 0.000000 1.000000 1.000000 1.000000
211 1 279.501003 131.201060 279.501003 131.201060 0.000000 0.000000 1.000000 1.000000 1.000000
212 1 24.336524 189.945184 24.336524 189.945184 0.000000 0.000000 1.000000 1.000000 1.000000
213 1 118.112880 303.742138 118.112880 303.742138 -0.000000 0.000000 1.000000 1.000000 1.000000
214 1 257.932487 169.075295 257.932487 169.075295 0.000000 -0.000000 1.000000 1.000000 1.000000
215 1 90.243700 259.948189 90.243700 259.948189 -0.000000 -0.000000 1.000000 1.000000 1.000000
216 1 249.016612 177.977171 249.016612 177.977171 -0.000000 -0.000000 1.000000 1.000000 1.000000
217 1 4.717469 14.090143 4.717469 14.090143 -0.000000 -0.000000 1.000000 1.000000 1.000000
218 1 142.830287 73.516367 142.830287 73.516367 0.000000 0.000000 1.000000 1.000000 1.000000
219 1 76.740158 292.768686 76.740158 292.768686 0.000000 0.000000 1.000000 1.000000 1.000000
220 1 34.193088 113.298453 34.193088 113.298453 -0.000000 -0.000000 1.000000 1.000000 1.000000
221 1 34.475364 91.602239 34.475364 91.602239 -0.000000 -0.000000 1.000000 1.000000 1.000000
222 1 219.179577 289.822809 219.179577 289.822809 -0.000000 0.000000 1.000000 1.000000 1.000000
223 1 0.100815 203.112006 314.323307 203.112006 0.000000 -0.000000 1.000000 1.000000 1.000000
224 1 216.701874 82.143181 216.701874 82.143181 -0.000000 0.000000 1.000000 1.000000 1.000000
225 1 55.332111 305.024581 55.332111 305.024581 0.000000 -0.000000 1.000000 1.000000 1.000000
226 1 256.434442 4.253444 256.434442 4.253444 0.000000 -0.000000 1.000000 1.000000 1.000000
227 1 304.467406 247.576082 304.467406 247.576082 0.000000 0.000000 1.000000 1.000000 1.000000
228 1 284.097330 52.164873 284.097330 52.164873 -0.000000 -0.000000 1.000000 1.000000 1.000000
229 1 10.391236 173.477709 10.391236 173.477709 -0.000000 -0.000000 1.000000 1.000000 1.000000
230 1 54.925479 194.437631 54.925479 194.437631 -0.000000 0.000000 1.000000 1.000000 1.000000
231 1 157.906900 270.448403 157.906900 270.448403 -0.000000 -0.000000 1.000000 1.000000 1.000000
232 1 166.665126 296.434673 166.665126 296.434673 -0.000000 0.000000 1.000000 1.000000 1.000000
233 1 182.457249 99.133385 182.457249 99.133385 -0.000000 -0.000000 1.000000 1.000000 1.000000
234 1 131.673913 230.208820 131.673913 230.208820 0.000000 -0.000001 1.000000 1.000000 1.000000
235 1 227.888416 5.450929 227.888416 5.450929 0.000000 0.000000 1.000000 1.000000 1.000000
236 1 30.314649 239.583519 30.314649 239.583519 0.000000 -0.000000 1.000000 1.000000 1.000000
237 1 68.676643 212.038994 68.676643 212.038994 0.000000 -0.000000 1.000000 1.000000 1.000000
238 1 72.396036 164.669281 72.396036 164.669281 0.000000 0.000000 1.000000 1.000000 1.000000
239 1 265.241797 208.430059 265.241797 208.430059 -0.000000 0.000000 1.000000 1.000000 1.000000
240 1 234.735726 91.820911 234.735726 91.820911 -0.000000 -0.000000 1.000000 1.000000 1.000000
241 1 143.270304 159.612416 143.270304 159.612416 0.000000 0.000000 1.000000 1.000000 1.000000
242 1 85.109874 80.027306 85.109874 80.027306 0.000000 -0.000000 1.000000 1.000000 1.000000
243 1 4.332512 83.879230 318.555004 83.879230 0.000000 -0.000000 1.000000 1.000000 1.000000
244 1 243.874114 313.367196 243.874114 313.367196 -0.000000 -0.000000 1.000000 1.000000 1.000000
245 1 240.072422 302.659473 240.072422 -11.563019 0.000000 -0.000000 1.000000 1.000000 1.000000
246 1 37.291772 91.410134 37.291772 91.410134 0.000000 0.000000 1.000000 1.000000 1.000000
247 1 3.693958 114.265644 317.916450 114.265644 -0.000000 0.000000 1.000000 1.000000 1.000000
248 1 132.694935 118.535234 132.694935 118.535234 0.000000 0.000000 1.000000 1.000000 1.000000
249 1 189.509248 16.122611 189.509248 16.122611 -0.000000 0.000000 1.000000 1.000000 1.000000
250 1 238.411308 78.819425 238.411308 78.819425 0.000000 0.000000 1.000000 1.000000 1.000000
251 1 192.189986 275.577548 192.189986 275.577548 0.000000 -0.000000 1.000000 1.000000 1.000000
252 1 69.740590 166.459845 69.740590 166.459845 -0.000000 -0.000000 1.000000 1.000000 1.000000
253 1 314.158525 294.319205 -0.063967 294.319205 -0.000000 0.000000 1.000000 1.000000 1.000000
254 1 10.068612 232.915147 10.068612 232.915147 0.000000 -0.000000 1.000000 1.000000 1.000000
255 1 274.555828 106.243277 274.555828 106.243277 0.000000 0.000000 1.000000 1.000000 1.000000
256 1 205.361644 271.207681 205.361644 271.207681 0.000000 -0.000000 1.000000 1.000000 1.000000
257 1 176.367328 60.789822 176.367328 60.789822 -0.000000 -0.000000 1.000000 1.000000 1.000000
258 1 104.324249 165.236616 104.324249 165.236616 -0.000000 0.000000 1.000000 1.000000 1.000000
259 1 152.198342 286.842085 152.198342 286.842085 0.000000 -0.000000 1.000000 1.000000 1.000000
260 1 118.296204 6.381280 118.296204 6.381280 -0.000000 0.000000 1.000000 1.000000 1.000000
261 1 101.544650 131.142657 101.544650 131.142657 0.000000 0.000000 1.000000 1.000000 1.000000
262 1 256.956721 119.080414 256.956721 119.080414 0.000000 -0.000000 1.000000 1.000000 1.000000
263 1 237.275868 309.832938 237.275868 -4.389554 -0.000000 -0.000000 1.000000 1.000000 1.000000
264 1 213.609042 114.959565 213.609042 114.959565 0.000000 -0.000000 1.000000 1.000000 1.000000
265 1 140.958937 126.023833 140.958937 126.023833 -0.000000 -0.000000 1.000000 1.000000 1.000000
266 1 5.907231 36.880498 5.907231 36.880498 -0.000000 0.000000 1.000000 1.000000 1.000000
267 1 27.217491 130.349066 27.217491 130.349066 0.000000 0.000000 1.000000 1.000000 1.000000
268 1 188.457233 139.806775 188.457233 139.806775 -0.000000 -0.000000 1.000000 1.000000 1.000000
269 1 310.320411 121.815701 310.320411 121.815701 0.000000 -0.000000 1.000000 1.000000 1.000000
270 1 107.531640 14.099504 107.531640 14.099504 -0.000000 -0.000000 1.000000 1.000000 1.000000
271 1 144.408364 273.595735 144.408364 273.595735 0.000000 0.000000 1.000000 1.000000 1.000000
272 1 244.573943 310.824247 244.573943 310.824247 0.000000 0.000000 1.000000 1.000000 1.000000
273 1 172.891080 193.353610 172.891080 193.353610 0.000000 -0.000000 1.000000 1.000000 1.000000
274 1 135.385472 39.840891 135.385472 39.840891 0.000000 -0.000000 1.000000 1.000000 1.000000
275 1 9.729476 250.548653 9.729476 250.548653 -0.000000 -0.000000 1.000000 1.000000 1.000000
276 1 94.449725 115.601033 94.449725 115.601033 0.000000 -0.000000 1.000000 1.000000 1.000000
277 1 46.695685 85.031346 46.695685 85.031346 0.000000 0.000000 1.000000 1.000000 1.000000
278 1 12.224746 276.643578 12.224746 276.643578 0.000000 -0.000000 1.000000 1.000000 1.000000
279 1 4.467378 148.589787 318.689870 148.589787 0.000000 -0.000000 1.000000 1.000000 1.000000
280 1 133.196042 212.334560 133.196042 212.334560 -0.000000 0.000000 1.000000 1.000000 1.000000
281 1 211.183016 198.120007 211.183016 198.120007 -0.000000 0.000000 1.000000 1.000000 1.000000
282 1 68.105388 122.551426 68.105388 122.551426 -0.000000 -0.000000 1.000000 1.000000 1.000000
283 1 85.662186 299.154287 85.662186 299.154287 0.000000 -0.000000 1.000000 1.000000 1.000000
284 1 34.074497 150.512638 34.074497 150.512638 0.000000 0.000000 1.000000 1.000000 1.000000
285 1 54.702273 292.151006 54.702273 292.151006 0.000000 0.000000 1.000000 1.000000 1.000000
286 1 118.559945 244.628057 118.559945 244.628057 -0.000000 0.000000 1.000000 1.000000 1.000000
287 1 291.126379 87.063807 291.126379 87.063807 -0.000000 -0.000000 1.000000 1.000000 1.000000
288 1 31.971918 72.520593 31.971918 72.520593 -0.000000 -0.000000 1.000000 1.000000 1.000000
289 1 197.328872 81.381722 197.328872 81.381722 -0.000000 0.000000 1.000000 1.000000 1.000000
290 1 305.923718 201.635281 305.923718 201.635281 -0.000000 0.000000 1.000000 1.000000 1.000000
291 1 135.346990 104.741442 135.346990 104.741442 -0.000000 0.000000 1.000000 1.000000 1.000000
292 1 136.164249 99.670640 136.164249 99.670640 -0.000000 -0.000000 1.000000 1.000000 1.000000
293 1 304.215142 106.151822 304.215142 106.151822 -0.000000 0.000000 1.000000 1.000000 1.000000
294 1 204.299440 26.794283 204.299440 26.794283 0.000000 -0.000000 1.000000 1.000000 1.000000
295 1 252.396654 263.056278 252.396654 263.056278 -0.000000 -0.000000 1.000000 1.000000 1.000000
296 1 141.938462 166.140059 141.938462 166.140059 0.000000 0.000000 1.000000 1.000000 1.000000
297 1 218.583728 163.321679 218.583728 163.321679 -0.000000 -0.000000 1.000000 1.000000 1.000000
298 1 62.223956 2.310499 62.223956 316.532991 0.000000 0.000000 1.000000 1.000000 1.000000
299 1 211.133361 293.019898 211.133361 293.019898 0.000000 -0.000000 1.000000 1.000000 1.000000
300 1 32.763061 188.708404 32.763061 188.708404 0.000000 -0.000000 1.000000 1.000000 1.000000
301 1 144.865873 7.753667 144.865873 321.976159 0.000000 0.000000 1.000000 1.000000 1.000000
302 1 12.624840 64.127193 12.624840 64.127193 0.000000 -0.000000 1.000000 1.000000 1.000000
303 1 285.135876 127.762471 285.135876 127.762471 -0.000000 0.000000 1.000000 1.000000 1.000000
304 1 210.510943 312.641898 210.510943 312.641898 0.000000 0.000000 1.000000 1.000000 1.000000
305 1 302.936706 225.639384 302.936706 225.639384 -0.000000 -0.000000 1.000000 1.000000 1.000000
306 1 176.708231 153.549156 176.708231 153.549156 0.000000 -0.000000 1.000000 1.000000 1.000000
307 1 133.806012 219.500689 133.806012 219.500689 0.000000 0.000000 1.000000 1.000000 1.000000
308 1 197.473199 229.363406 197.473199 229.363406 0.000000 0.000000 1.000000 1.000000 1.000000
309 1 304.196391 111.717933 304.196391 111.717933 0.000000 0.000000 1.000000 1.000000 1.000000
310 1 38.200754 251.375318 38.200754 251.375318 0.000000 -0.000000 1.000000 1.000000 1.000000
311 1 265.807759 38.934860 265.807759 38.934860 0.000000 0.000000 1.000000 1.000000 1.000000
312 1 60.083225 263.186669 60.083225 263.186669 -0.000000 0.000000 1.000000 1.000000 1.000000
313 1 24.931032 147.333783 24.931032 147.333783 0.000000 0.000000 1.000000 1.000000 1.000000
314 1 275.101843 118.874194 275.101843 118.874194 -0.000000 -0.000000 1.000000 1.000000 1.000000
315 1 142.416521 299.442520 142.416521 299.442520 -0.000000 0.000000 1.000000 1.000000 1.000000