ITEM: TIMESTEP
2600.000000
ITEM: NUMBER OF ATOMS
5000
ITEM: BOX BOUNDS xy xz yz
0 253.757544 0
0 253.757544 0
0 2 0
ITEM: ATOMS id type x y xu yu vx vy radius m z
0 1 126.900232 71.968360 126.900232 71.968360 0.000000 -0.000000 1.000000 1.000000 1.000000
1 1 225.349887 51.550187 225.349887 51.550187 0.000000 0.000000 1.000000 1.000000 1.000000
2 1 161.204100 147.331253 161.204100 147.331253 -0.000000 0.000000 1.000000 1.000000 1.000000
3 1 159.045472 133.205565 159.045472 133.205565 -0.000000 -0.000000 1.000000 1.000000 1.000000
4 1 81.103258 223.604605 81.103258 223.604605 -0.000000 -0.000000 1.000000 1.000000 1.000000
5 1 91.133967 89.076332 91.133967 89.076332 0.000000 -0.000000 1.000000 1.000000 1.000000
6 1 193.768068 110.142255 193.768068 110.142255 -0.000000 -0.000000 1.000000 1.000000 1.000000
7 1 229.224553 54.602411 229.224553 54.602411 0.000000 -0.000000 1.000000 1.000000 1.000000
8 1 181.498362 96.417796 181.498362 96.417796 -0.000000 -0.000000 1.000000 1.000000 1.000000
9 1 84.201001 224.484777 84.201001 224.484777 -0.000000 0.000000 1.000000 1.000000 1.000000
10 1 85.605601 182.770155 85.605601 182.770155 0.000000 0.000000 1.000000 1.000000 1.000000
11 1 216.196238 144.750130 216.196238 144.750130 0.000000 0.000000 1.000000 1.000000 1.000000
12 1 92.947177 226.692641 92.947177 -27.064903 0.000000 -0.000000 1.000000 1.000000 1.000000
13 1 44.437527 250.018245 44.437527 250.018245 -0.000000 0.000000 1.000000 1.000000 1.000000
14 1 92.112534 208.286910 92.112534 208.286910 0.000000 -0.000000 1.000000 1.000000 1.000000
15 1 208.913270 99.596422 208.913270 99.596422 0.000000 0.000000 1.000000 1.000000 1.000000
16 1 93.824439 116.603832 93.824439 116.603832 0.000000 -0.000000 1.000000 1.000000 1.000000
17 1 69.753703 159.891559 69.753703 159.891559 -0.000000 0.000000 1.000000 1.000000 1.000000
18 1 145.858244 42.781939 145.858244 42.781939 0.000000 -0.000000 1.000000 1.000000 1.000000
19 1 93.579820 96.796920 93.579820 96.796920 -0.000000 -0.000000 1.000000 1.000000 1.000000
20 1 16.481790 79.921977 16.481790 79.921977 0.000000 -0.000000 1.000000 1.000000 1.000000
21 1 223.008055 204.070198 223.008055 204.070198 0.000000 0.000000 1.000000 1.000000 1.000000
22 1 164.125717 106.479832 164.125717 106.479832 -0.000000 0.000000 1.000000 1.000000 1.000000
23 1 43.334009 235.518596 43.334009 -18.238948 -0.000000 0.000000 1.000000 1.000000 1.000000
24 1 200.830860 152.094723 200.830860 152.094723 -0.000000 0.000000 1.000000 1.000000 1.000000
25 1 195.488800 230.992264 195.488800 230.992264 0.000000 -0.000000 1.000000 1.000000 1.000000
26 1 154.400892 199.577307 154.400892 199.577307 0.000000 -0.000000 1.000000 1.000000 1.000000
27 1 187.833510 50.115941 187.833510 50.115941 0.000000 0.000000 1.000000 1.000000 1.000000
28 1 137.369395 206.801299 137.369395 206.801299 -0.000000 0.000000 1.000000 1.000000 1.000000
29 1 7.588794 230.476577 7.588794 230.476577 0.000000 0.000000 1.000000 1.000000 1.000000
30 1 188.182831 56.475237 188.182831 56.475237 0.000000 -0.000000 1.000000 1.000000 1.000000
31 1 192.417177 67.277655 192.417177 67.277655 -0.000000 0.000000 1.000000 1.000000 1.000000
32 1 190.538726 167.046093 190.538726 167.046093 0.000000 0.000001 1.000000 1.000000 1.000000
33 1 21.794994 165.908049 21.794994 165.908049 -0.000000 -0.000000 1.000000 1.000000 1.000000
34 1 40.173802 7.833695 40.173802 7.833695 0.000000 -0.000000 1.000000 1.000000 1.000000
35 1 168.849239 181.478521 168.849239 181.478521 -0.000000 -0.000000 1.000000 1.000000 1.000000
36 1 188.514118 212.511311 188.514118 212.511311 0.000000 0.000000 1.000000 1.000000 1.000000
37 1 206.535397 108.141050 206.535397 108.141050 0.000000 -0.000000 1.000000 1.000000 1.000000
38 1 192.419863 105.025788 192.419863 105.025788 -0.000000 0.000000 1.000000 1.000000 1.000000
39 1 73.632699 180.385833 73.632699 180.385833 0.000000 0.000000 1.000000 1.000000 1.000000
40 1 252.440381 127.141606 252.440381 127.141606 0.000000 0.000000 1.000000 1.000000 1.000000
41 1 46.523412 76.776950 46.523412 76.776950 0.000000 -0.000000 1.000000 1.000000 1.000000
42 1 168.243597 8.116131 168.243597 8.116131 -0.000000 0.000000 1.000000 1.000000 1.000000
43 1 138.889826 82.550051 138.889826 82.550051 0.000000 -0.000000 1.000000 1.000000 1.000000
44 1 153.050557 138.837070 153.050557 138.837070 0.000000 0.000000 1.000000 1.000000 1.000000
45 1 13.256531 110.379096 13.256531 110.379096 -0.000000 0.000000 1.000000 1.000000 1.000000
46 1 148.386563 185.730018 148.386563 185.730018 -0.000000 0.000000 1.000000 1.000000 1.000000
47 1 81.294577 200.034107 81.294577 200.034107 -0.000000 -0.000000 1.000000 1.000000 1.000000
48 1 25.056486 7.916343 25.056486 7.916343 -0.000000 0.000000 1.000000 1.000000 1.000000
49 1 184.484493 231.255986 184.484493 231.255986 -0.000000 0.000000 1.000000 1.000000 1.000000
50 1 160.609510 104.054111 160.609510 104.054111 -0.000000 0.000000 1.000000 1.000000 1.000000
51 1 208.106287 225.355585 208.106287 225.355585 -0.000000 0.000000 1.000000 1.000000 1.000000
52 1 70.582290 245.266314 70.582290 -8.491230 0.000000 0.000000 1.000000 1.000000 1.000000
53 1 55.792266 124.630215 55.792266 124.630215 0.000000 0.000000 1.000000 1.000000 1.000000
54 1 127.870232 87.417794 127.870232 87.417794 0.000000 -0.000000 1.000000 1.000000 1.000000
55 1 183.517236 129.553635 183.517236 129.553635 0.000000 0.000000 1.000000 1.000000 1.000000
56 1 234.227416 45.972571 234.227416 45.972571 -0.000000 -0.000000 1.000000 1.000000 1.000000
57 1 159.329601 87.474508 159.329601 87.474508 -0.000000 0.000000 1.000000 1.000000 1.000000
58 1 8.100540 225.676864 8.100540 225.676864 0.000000 -0.000000 1.000000 1.000000 1.000000
59 1 190.241302 139.097028 190.241302 139.097028 -0.000000 -0.000000 1.000000 1.000000 1.000000
60 1 138.356378 227.381592 138.356378 227.381592 0.000000 -0.000000 1.000000 1.000000 1.000000
61 1 209.834546 173.350397 209.834546 173.350397 -0.000000 0.000000 1.000000 1.000000 1.000000
62 1 184.727825 228.018636 184.727825 228.018636 -0.000000 -0.000000 1.000000 1.000000 1.000000
63 1 94.323456 170.144192 94.323456 170.144192 0.000000 0.000000 1.000000 1.000000 1.000000
64 1 142.513774 130.214479 142.513774 130.214479 -0.000000 0.000000 1.000000 1.000000 1.000000
65 1 20.966405 29.578908 20.966405 29.578908 0.000000 0.000000 1.000000 1.000000 1.000000
66 1 221.959120 7.831268 221.959120 261.588812 -0.000000 -0.000000 1.000000 1.000000 1.000000
67 1 86.900479 139.645468 86.900479 139.645468 -0.000000 -0.000000 1.000000 1.000000 1.000000
68 1 42.299066 13.827608 42.299066 13.827608 -0.000000 -0.000000 1.000000 1.000000 1.000000
69 1 73.559106 219.546591 73.559106 219.546591 0.000000 -0.000000 1.000000 1.000000 1.000000
70 1 176.451247 1.853889 176.451247 1.853889 -0.000000 0.000000 1.000000 1.000000 1.000000
71 1 146.233288 61.629971 146.233288 61.629971 -0.000000 0.000000 1.000000 1.000000 1.000000
72 1 6.379077 22.804027 260.136621 22.804027 -0.000000 0.000000 1.000000 1.000000 1.000000
73 1 137.053420 185.723068 137.053420 185.723068 0.000000 0.000000 1.000000 1.000000 1.000000
74 1 14.418693 23.843250 14.418693 23.843250 -0.000000 0.000000 1.000000 1.000000 1.000000
75 1 171.298347 52.974954 171.298347 52.974954 -0.000000 0.000000 1.000000 1.000000 1.000000
76 1 250.856169 16.853838 -2.901375 16.853838 0.000000 -0.000000 1.000000 1.000000 1.000000
77 1 197.244286 181.997616 197.244286 181.997616 0.000000 0.000000 1.000000 1.000000 1.000000
78 1 88.376427 87.795694 88.376427 87.795694 0.000000 -0.000000 1.000000 1.000000 1.000000
79 1 47.639357 125.230099 47.639357 125.230099 -0.000000 -0.000000 1.000000 1.000000 1.000000
80 1 110.896570 153.156231 110.896570 153.156231 -0.000000 -0.000000 1.000000 1.000000 1.000000
81 1 115.717479 196.094229 115.717479 196.094229 -0.000000 0.000000 1.000000 1.000000 1.000000
82 1 146.777048 126.852387 146.777048 126.852387 -0.000000 0.000000 1.000000 1.000000 1.000000
83 1 202.671766 115.172031 202.671766 115.172031 0.000000 -0.000000 1.000000 1.000000 1.000000
84 1 83.064500 46.519558 83.064500 46.519558 0.000000 -0.000000 1.000000 1.000000 1.000000
85 1 193.570468 171.708846 193.570468 171.708846 0.000000 0.000000 1.000000 1.000000 1.000000
86 1 96.952799 199.806775 96.952799 199.806775 -0.000000 0.000000 1.000000 1.000000 1.000000
87 1 179.262579 193.839645 179.262579 193.839645 -0.000000 0.000000 1.000000 1.000000 1.000000
88 1 237.786543 176.667909 237.786543 176.667909 0.000000 0.000000 1.000000 1.000000 1.000000
89 1 65.119329 142.839175 65.119329 142.839175 -0.000000 -0.000000 1.000000 1.000000 1.000000
90 1 236.299161 36.705937 236.299161 36.705937 0.000000 -0.000000 1.000000 1.000000 1.000000
91 1 210.325108 32.982578 210.325108 32.982578 0.000000 0.000000 1.000000 1.000000 1.000000
92 1 192.750807 92.164246 192.750807 92.164246 0.000000 -0.000000 1.000000 1.000000 1.000000
93 1 2.497507 227.200607 256.255051 227.200607 0.000000 -0.000000 1.000000 1.000000 1.000000
94 1 40.440241 104.501845 40.440241 104.501845 0.000000 0.000000 1.000000 1.000000 1.000000
95 1 166.627166 52.504647 166.627166 52.504647 -0.000000 -0.000000 1.000000 1.000000 1.000000
96 1 6.265039 201.861130 260.022583 201.861130 -0.000000 -0.000000 1.000000 1.000000 1.000000
97 1 25.785617 236.516305 25.785617 -17.241239 -0.000000 0.000000 1.000000 1.000000 1.000000
98 1 44.738048 239.638612 44.738048 239.638612 -0.000000 -0.000000 1.000000 1.000000 1.000000
99 1 104.624877 72.022434 104.624877 72.022434 -0.000000 0.000000 1.000000 1.000000 1.000000
100 1 222.015286 240.970567 222.015286 240.970567 -0.000000 0.000000 1.000000 1.000000 1.000000
101 1 11.921336 206.020071 11.921336 206.020071 -0.000000 -0.000000 1.000000 1.000000 1.000000
102 1 203.938981 18.248605 203.938981 18.248605 0.000000 -0.000000 1.000000 1.000000 1.000000
103 1 203.218826 242.474817 203.218826 242.474817 0.000000 0.000000 1.000000 1.000000 1.000000
104 1 17.128840 158.715521 270.886384 158.715521 0.000000 0.000000 1.000000 1.000000 1.000000
105 1 185.254121 253.032650 185.254121 -0.724894 -0.000000 0.000000 1.000000 1.000000 1.000000
106 1 96.259421 209.227094 96.259421 209.227094 0.000000 0.000000 1.000000 1.000000 1.000000
107 1 220.014892 70.266486 220.014892 70.266486 -0.000000 0.000000 1.000000 1.000000 1.000000
108 1 75.764297 88.280998 75.764297 88.280998 0.000000 -0.000000 1.000000 1.000000 1.000000
109 1 90.713660 214.260277 90.713660 214.260277 -0.000001 -0.000001 1.000000 1.000000 1.000000
110 1 186.890024 132.934536 186.890024 132.934536 0.000000 0.000000 1.000000 1.000000 1.000000
111 1 19.593993 174.042714 19.593993 174.042714 0.000000 -0.000000 1.000000 1.000000 1.000000
112 1 4.480420 18.940645 258.237964 18.940645 -0.000000 0.000000 1.000000 1.000000 1.000000
113 1 87.395638 200.584249 87.395638 200.584249 -0.000000 0.000000 1.000000 1.000000 1.000000
114 1 184.943588 213.655890 184.943588 213.655890 0.000000 0.000000 1.000000 1.000000 1.000000
115 1 228.449071 155.698931 228.449071 155.698931 0.000000 0.000000 1.000000 1.000000 1.000000
116 1 143.928731 134.510286 143.928731 134.510286 0.000000 0.000000 1.000000 1.000000 1.000000
117 1 74.640214 25.959728 74.640214 25.959728 -0.000000 0.000000 1.000000 1.000000 1.000000
118 1 244.178365 179.100205 244.178365 179.100205 -0.000000 0.000000 1.000000 1.000000 1.000000
119 1 188.983451 155.980157 188.983451 155.980157 -0.000000 -0.000000 1.000000 1.000000 1.000000
120 1 165.506724 230.692893 165.506724 230.692893 0.000000 0.000000 1.000000 1.000000 1.000000
121 1 2.777788 213.360906 256.535332 213.360906 0.000000 -0.000000 1.000000 1.000000 1.000000
122 1 70.438059 136.273889 70.438059 136.273889 -0.000000 0.000000 1.000000 1.000000 1.000000
123 1 170.348323 172.059479 170.348323 172.059479 -0.000000 -0.000000 1.000000 1.000000 1.000000
124 1 11.026178 198.923382 264.783722 198.923382 -0.000000 0.000000 1.000000 1.000000 1.000000
125 1 191.688908 184.959748 191.688908 184.959748 0.000000 -0.000000 1.000000 1.000000 1.000000
126 1 210.509827 86.737904 210.509827 86.737904 0.000000 -0.000000 1.000000 1.000000 1.000000
127 1 99.520354 70.822504 99.520354 70.822504 0.000000 0.000000 1.000000 1.000000 1.000000
128 1 195.945340 156.822125 195.945340 156.822125 0.000000 0.000000 1.000000 1.000000 1.000000
129 1 73.236131 164.088766 73.236131 164.088766 0.000000 0.000000 1.000000 1.000000 1.000000
130 1 204.928159 203.933022 204.928159 203.933022 -0.000000 0.000000 1.000000 1.000000 1.000000
131 1 139.525974 237.674241 139.525974 -16.083303 -0.000000 0.000000 1.000000 1.000000 1.000000
132 1 75.035835 207.352464 75.035835 207.352464 0.000000 -0.000000 1.000000 1.000000 1.000000
133 1 165.027467 149.556090 165.027467 149.556090 0.000000 -0.000000 1.000000 1.000000 1.000000
134 1 19.527253 206.542000 19.527253 206.542000 0.000000 0.000000 1.000000 1.000000 1.000000
135 1 41.502549 208.820092 41.502549 208.820092 0.000000 0.000000 1.000000 1.000000 1.000000
136 1 92.527446 184.780042 92.527446 184.780042 -0.000000 -0.000000 1.000000 1.000000 1.000000
137 1 109.960779 34.731698 109.960779 34.731698 0.000000 0.000000 1.000000 1.000000 1.000000
138 1 68.810187 174.366700 68.810187 174.366700 0.000000 0.000000 1.000000 1.000000 1.000000
139 1 6.148686 97.425906 6.148686 97.425906 -0.000000 0.000000 1.000000 1.000000 1.000000
140 1 90.911965 14.886570 90.911965 14.886570 -0.000000 -0.000000 1.000000 1.000000 1.000000
141 1 174.235278 244.244928 174.235278 -9.512616 -0.000000 -0.000000 1.000000 1.000000 1.000000
142 1 65.859814 119.974269 65.859814 119.974269 -0.000000 0.000000 1.000000 1.000000 1.000000
143 1 231.932459 0.928461 231.932459 254.686005 -0.000000 -0.000000 1.000000 1.000000 1.000000
144 1 154.158294 35.785127 154.158294 35.785127 0.000000 0.000000 1.000000 1.000000 1.000000
145 1 23.049749 34.291369 23.049749 34.291369 -0.000000 0.000000 1.000000 1.000000 1.000000
146 1 50.641209 37.346033 50.641209 37.346033 -0.000000 -0.000000 1.000000 1.000000 1.000000
147 1 149.658375 76.672077 149.658375 76.672077 -0.000000 0.000000 1.000000 1.000000 1.000000
148 1 77.471264 173.969056 77.471264 173.969056 -0.000000 0.000000 1.000000 1.000000 1.000000
149 1 241.815801 91.012311 -11.941743 91.012311 0.000000 -0.000000 1.000000 1.000000 1.000000
150 1 178.078131 155.451807 178.078131 155.451807 0.000000 -0.000000 1.000000 1.000000 1.000000
151 1 55.724271 164.492508 55.724271 164.492508 0.000000 -0.000000 1.000000 1.000000 1.000000
152 1 197.078860 121.192577 197.078860 121.192577 -0.000000 0.000000 1.000000 1.000000 1.000000
153 1 47.785291 17.320085 47.785291 17.320085 0.000000 -0.000000 1.000000 1.000000 1.000000
154 1 144.519624 129.960067 144.519624 129.960067 -0.000000 0.000000 1.000000 1.000000 1.000000
155 1 182.067334 104.331993 182.067334 104.331993 -0.000000 -0.000000 1.000000 1.000000 1.000000
156 1 197.060038 192.547167 197.060038 192.547167 -0.000000 -0.000000 1.000000 1.000000 1.000000
157 1 198.671126 170.771017 198.671126 170.771017 -0.000000 -0.000000 1.000000 1.000000 1.000000
158 1 211.976838 107.422415 211.976838 107.422415 -0.000000 -0.000000 1.000000 1.000000 1.000000
159 1 247.605933 174.959565 247.605933 174.959565 0.000000 0.000000 1.000000 1.000000 1.000000
160 1 65.573275 149.721620 65.573275 149.721620 0.000000 0.000000 1.000000 1.000000 1.000000
161 1 212.747366 221.744650 212.747366 221.744650 -0.000000 0.000000 1.000000 1.000000 1.000000
162 1 35.038760 30.532616 35.038760 30.532616 -0.000000 0.000000 1.000000 1.000000 1.000000
163 1 245.926444 200.969427 245.926444 200.969427 -0.000000 -0.000000 1.000000 1.000000 1.000000
164 1 23.686925 70.385027 23.686925 70.385027 -0.000000 0.000000 1.000000 1.000000 1.000000
165 1 117.312481 181.960327 117.312481 181.960327 0.000000 0.000000 1.000000 1.000000 1.000000
166 1 169.629060 117.883982 169.629060 117.883982 -0.000000 0.000000 1.000000 1.000000 1.000000
167 1 125.925747 78.595517 125.925747 78.595517 0.000000 0.000000 1.000000 1.000000 1.000000
168 1 118.435076 246.599501 118.435076 -7.158043 0.000000 -0.000000 1.000000 1.000000 1.000000
169 1 75.643903 159.858033 75.643903 159.858033 0.000000 -0.000000 1.000000 1.000000 1.000000
170 1 4.798179 199.178305 4.798179 199.178305 -0.000000 0.000000 1.000000 1.000000 1.000000
171 1 86.416876 16.151492 86.416876 269.909036 -0.000000 0.000000 1.000000 1.000000 1.000000
172 1 226.051559 132.736361 226.051559 132.736361 -0.000000 0.000000 1.000000 1.000000 1.000000
173 1 71.109861 193.171152 71.109861 193.171152 0.000000 -0.000000 1.000000 1.000000 1.000000
174 1 171.839949 72.178926 171.839949 72.178926 -0.000000 -0.000000 1.000000 1.000000 1.000000
175 1 47.603539 196.675991 47.603539 196.675991 -0.000000 0.000000 1.000000 1.000000 1.000000
176 1 238.978137 100.070618 238.978137 100.070618 -0.000000 0.000000 1.000000 1.000000 1.000000
177 1 136.308035 140.756638 136.308035 140.756638 0.000000 0.000000 1.000000 1.000000 1.000000
178 1 190.222530 241.548175 190.222530 241.548175 -0.000000 -0.000000 1.000000 1.000000 1.000000
179 1 154.965039 176.068242 154.965039 176.068242 0.000000 0.000000 1.000000 1.000000 1.000000
180 1 33.167305 250.839734 33.167305 250.839734 -0.000000 -0.000000 1.000000 1.000000 1.000000
181 1 191.973699 140.298393 191.973699 140.298393 -0.000000 0.000000 1.000000 1.000000 1.000000
182 1 203.628346 42.318143 203.628346 42.318143 -0.000000 -0.000000 1.000000 1.000000 1.000000
183 1 154.575954 53.723866 154.575954 53.723866 -0.000000 -0.000000 1.000000 1.000000 1.000000
184 1 48.928081 231.276680 48.928081 231.276680 -0.000000 -0.000000 1.000000 1.000000 1.000000
185 1 243.888402 197.212809 243.888402 197.212809 -0.000000 -0.000000 1.000000 1.000000 1.000000
186 1 26.065524 43.162322 26.065524 43.162322 -0.000000 0.000000 1.000000 1.000000 1.000000
187 1 226.499867 104.233696 226.499867 104.233696 -0.000000 -0.000000 1.000000 1.000000 1.000000
188 1 144.056541 101.484586 144.056541 101.484586 -0.000000 -0.000000 1.000000 1.000000 1.000000
189 1 96.305988 236.305099 96.305988 -17.452445 0.000000 0.000000 1.000000 1.000000 1.000000
190 1 96.719977 79.874734 96.719977 79.874734 -0.000000 -0.000000 1.000000 1.000000 1.000000
191 1 215.367299 245.073466 215.367299 245.073466 -0.000000 -0.000000 1.000000 1.000000 1.000000
192 1 42.342796 243.029978 42.342796 -10.727566 0.000000 -0.000000 1.000000 1.000000 1.000000
193 1 245.391490 210.720977 -8.366054 210.720977 0.000000 0.000000 1.000000 1.000000 1.000000
194 1 200.761544 71.081138 200.761544 71.081138 -0.000000 -0.000000 1.000000 1.000000 1.000000
195 1 98.858672 161.590662 98.858672 161.590662 0.000000 0.000000 1.000000 1.000000 1.000000
196 1 121.682092 2.980679 121.682092 2.980679 0.000000 -0.000000 1.000000 1.000000 1.000000
197 1 92.943808 128.425805 92.943808 128.425805 -0.000000 -0.000000 1.000000 1.000000 1.000000
198 1 127.887320 2.827320 127.887320 2.827320 0.000000 -0.000000 1.000000 1.000000 1.000000
199 1 207.796837 87.184132 207.796837 87.184132 0.000000 -0.000000 1.000000 1.000000 1.000000
200 1 192.785286 112.453487 192.785286 112.453487 -0.000000 0.000000 1.000000 1.000000 1.000000
201 1 223.238637 18.631809 223.238637 18.631809 -0.000000 0.000000 1.000000 1.000000 1.000000
202 1 132.014669 153.814006 132.014669 153.814006 -0.000000 0.000000 1.000000 1.000000 1.000000
203 1 85.694580 113.917409 85.694580 113.917409 -0.000000 -0.000000 1.000000 1.000000 1.000000
204 1 202.348451 65.525524 202.348451 65.525524 0.000000 -0.000000 1.000000 1.000000 1.000000
205 1 162.953503 234.312254 162.953503 234.312254 -0.000000 0.000000 1.000000 1.000000 1.000000
206 1 19.296767 213.468780 273.054311 213.468780 0.000000 0.000000 1.000000 1.000000 1.000000
207 1 111.939677 150.931887 111.939677 150.931887 0.000000 -0.000000 1.000000 1.000000 1.000000
208 1 56.961971 42.324270 56.961971 42.324270 -0.000000 -0.000000 1.000000 1.000000 1.000000
209 1 81.907954 228.144030 81.907954 228.144030 -0.000000 -0.000000 1.000000 1.000000 1.000000
210 1 211.962291 243.038886 211.962291 243.038886 -0.000000 0.000000 1.000000 1.000000 1.000000
211 1 187.641375 209.791714 187.641375 209.791714 0.000000 -0.000000 1.000000 1.000000 1.000000
212 1 132.167507 226.770453 132.167507 226.770453 0.000000 0.000000 1.000000 1.000000 1.000000
213 1 148.722291 182.763734 148.722291 182.763734 0.000000 0.000000 1.000000 1.000000 1.000000
214 1 95.089169 77.637152 95.089169 77.637152 -0.000000 0.000000 1.000000 1.000000 1.000000
215 1 194.538926 25.417642 194.538926 25.417642 0.000000 0.000000 1.000000 1.000000 1.000000
216 1 230.733598 106.187034 230.733598 106.187034 -0.000000 0.000000 1.000000 1.000000 1.000000
217 1 27.873317 178.950584 281.630861 178.950584 0.000000 0.000000 1.000000 1.000000 1.000000
218 1 210.278897 91.847860 210.278897 91.847860 0.000000 -0.000000 1.000000 1.000000 1.000000
219 1 172.800044 103.969951 172.800044 103.969951 -0.000000 -0.000000 1.000000 1.000000 1.000000
220 1 252.147630 5.649195 252.147630 5.649195 -0.000000 0.000000 1.000000 1.000000 1.000000
221 1 227.545293 173.873512 -26.212251 173.873512 0.000000 -0.000000 1.000000 1.000000 1.000000
222 1 197.304949 47.007373 197.304949 47.007373 0.000000 0.000000 1.000000 1.000000 1.000000
223 1 6.451579 38.143627 6.451579 38.143627 -0.000000 0.000000 1.000000 1.000000 1.000000
224 1 148.884057 206.987771 148.884057 206.987771 -0.000000 -0.000000 1.000000 1.000000 1.000000
225 1 163.664993 147.987890 163.664993 147.987890 -0.000000 0.000000 1.000000 1.000000 1.000000
226 1 131.381947 3.978640 131.381947 3.978640 0.000000 0.000000 1.000000 1.000000 1.000000
227 1 15.260134 60.569958 15.260134 60.569958 0.000000 0.000000 1.000000 1.000000 1.000000
228 1 103.418957 131.659281 103.418957 131.659281 0.000000 -0.000000 1.000000 1.000000 1.000000
229 1 130.220770 152.619976 130.220770 152.619976 0.000000 0.000000 1.000000 1.000000 1.000000
230 1 180.900664 145.425863 180.900664 145.425863 0.000000 -0.000000 1.000000 1.000000 1.000000
231 1 84.492965 19.048873 84.492965 19.048873 -0.000000 0.000000 1.000000 1.000000 1.000000
232 1 59.585213 128.996780 59.585213 128.996780 0.000000 0.000000 1.000000 1.000000 1.000000
233 1 76.670549 74.264454 76.670549 74.264454 0.000000 -0.000000 1.000000 1.000000 1.000000
234 1 147.214456 159.125183 147.214456 159.125183 0.000000 -0.000000 1.000000 1.000000 1.000000
235 1 158.159947 251.503025 158.159947 251.503025 -0.000000 -0.000000 1.000000 1.000000 1.000000
236 1 60.939014 198.429468 60.939014 198.429468 0.000000 -0.000000 1.000000 1.000000 1.000000
237 1 31.647761 148.244391 31.647761 148.244391 -0.000000 0.000000 1.000000 1.000000 1.000000
238 1 156.140187 250.347009 156.140187 250.347009 0.000000 -0.000000 1.000000 1.000000 1.000000
239 1 164.791994 1.878799 164.791994 255.636343 -0.000000 -0.000000 1.000000 1.000000 1.000000
240 1 102.518563 104.476394 102.518563 104.476394 0.000000 -0.000000 1.000000 1.000000 1.000000
241 1 243.726099 45.224225 243.726099 45.224225 0.000000 0.000000 1.000000 1.000000 1.000000
242 1 29.392206 162.186514 29.392206 162.186514 -0.000000 0.000000 1.000000 1.000000 1.000000
243 1 219.368029 59.950184 219.368029 59.950184 0.000000 0.000000 1.000000 1.000000 1.000000
244 1 194.766054 213.961699 194.766054 213.961699 0.000000 0.000000 1.000000 1.000000 1.000000
245 1 131.948416 130.445689 131.948416 130.445689 0.000000 0.000000 1.000000 1.000000 1.000000
246 1 181.086439 16.562355 181.086439 270.319899 -0.000000 -0.000000 1.000000 1.000000 1.000000
247 1 115.745321 243.591698 115.745321 243.591698 0.000000 -0.000000 1.000000 1.000000 1.000000
248 1 125.258963 127.155837 125.258963 127.155837 -0.000000 0.000000 1.000000 1.000000 1.000000
249 1 13.312750 163.340710 13.312750 163.340710 0.000000 0.000000 1.000000 1.000000 1.000000
250 1 138.798464 128.225670 138.798464 128.225670 0.000000 0.000000 1.000000 1.000000 1.000000
251 1 89.350304 188.495186 89.350304 188.495186 0.000000 -0.000000 1.000000 1.000000 1.000000
252 1 173.256396 232.824322 173.256396 232.824322 -0.000000 0.000000 1.000000 1.000000 1.000000
253 1 0.667895 211.897027 254.425439 211.897027 -0.000000 0.000000 1.000000 1.000000 1.000000
254 1 228.944707 102.986054 228.944707 102.986054 -0.000000 0.000000 1.000000 1.000000 1.000000
255 1 198.446425 218.749086 198.446425 218.749086 -0.000000 0.000000 1.000000 1.000000 1.000000
256 1 238.544908 119.332706 238.544908 119.332706 -0.000000 -0.000000 1.000000 1.000000 1.000000
257 1 17.204936 202.553547 17.204936 202.553547 0.000000 -0.000000 1.000000 1.000000 1.000000
258 1 99.534384 31.263649 99.534384 31.263649 -0.000000 0.000000 1.000000 1.000000 1.000000
259 1 221.097683 58.788747 221.097683 58.788747 0.000000 -0.000000 1.000000 1.000000 1.000000
260 1 124.964450 192.595286 124.964450 192.595286 0.000000 0.000000 1.000000 1.000000 1.000000
261 1 131.846183 116.771435 131.846183 116.771435 -0.000000 -0.000000 1.000000 1.000000 1.000000
262 1 196.172646 235.615136 196.172646 -18.142408 -0.000000 0.000000 1.000000 1.000000 1.000000
263 1 35.227499 92.048725 35.227499 92.048725 -0.000000 0.000000 1.000000 1.000000 1.000000
264 1 248.713985 85.988383 -5.043559 85.988383 0.000000 -0.000000 1.000000 1.000000 1.000000
265 1 217.729162 104.131352 -36.028382 104.131352 -0.000000 -0.000000 1.000000 1.000000 1.000000
266 1 125.443716 155.023080 125.443716 155.023080 -0.000000 0.000000 1.000000 1.000000 1.000000
267 1 73.071800 155.383916 73.071800 155.383916 0.000000 0.000000 1.000000 1.000000 1.000000
268 1 80.943486 121.097390 80.943486 121.097390 -0.000000 0.000000 1.000000 1.000000 1.000000
269 1 94.266019 24.196670 94.266019 24.196670 0.000000 -0.000000 1.000000 1.000000 1.000000
270 1 45.981051 91.809495 45.981051 91.809495 -0.000000 0.000000 1.000000 1.000000 1.000000
271 1 93.809146 114.553406 93.809146 114.553406 0.000000 -0.000000 1.000000 1.000000 1.000000
272 1 151.045470 36.654717 151.045470 36.654717 0.000000 0.000000 1.000000 1.000000 1.000000
273 1 211.896524 97.464748 211.896524 97.464748 0.000000 0.000000 1.000000 1.000000 1.000000
274 1 152.734431 124.925824 152.734431 124.925824 -0.000000 0.000000 1.000000 1.000000 1.000000
275 1 208.371372 154.834708 208.371372 154.834708 -0.000000 0.000000 1.000000 1.000000 1.000000
276 1 160.010728 42.249818 160.010728 42.249818 -0.000000 0.000000 1.000000 1.000000 1.000000
277 1 11.678562 59.623291 11.678562 59.623291 -0.000000 0.000000 1.000000 1.000000 1.000000
278 1 106.938073 55.517622 106.938073 55.517622 0.000000 -0.000000 1.000000 1.000000 1.000000
279 1 211.623505 213.499362 211.623505 213.499362 0.000000 -0.000000 1.000000 1.000000 1.000000
280 1 123.900274 1.353477 123.900274 255.111021 -0.000000 0.000000 1.000000 1.000000 1.000000
281 1 164.812765 130.265692 164.812765 130.265692 -0.000000 -0.000000 1.000000 1.000000 1.000000
282 1 222.073913 141.108358 222.073913 141.108358 -0.000000 0.000000 1.000000 1.000000 1.000000
283 1 7.414455 180.075595 7.414455 180.075595 -0.000000 -0.000000 1.000000 1.000000 1.000000
284 1 174.479650 226.004661 174.479650 226.004661 0.000000 0.000000 1.000000 1.000000 1.000000
285 1 27.286904 38.845537 27.286904 38.845537 0.000000 0.000000 1.000000 1.000000 1.000000
286 1 98.359864 204.943482 98.359864 204.943482 -0.000000 -0.000000 1.000000 1.000000 1.000000
287 1 175.430535 224.117161 175.430535 224.117161 -0.000000 0.000000 1.000000 1.000000 1.000000
288 1 138.803314 106.551964 138.803314 106.551964 0.000000 -0.000000 1.000000 1.000000 1.000000
289 1 69.431042 247.158692 69.431042 247.158692 0.000000 0.000000 1.000000 1.000000 1.000000
290 1 67.503333 191.884410 67.503333 191.884410 0.000000 0.000000 1.000000 1.000000 1.000000
291 1 43.808456 109.981915 43.808456 109.981915 0.000000 0.000000 1.000000 1.000000 1.000000
292 1 181.325192 152.663799 181.325192 152.663799 -0.000000 0.000000 1.000000 1.000000 1.000000
293 1 141.809537 41.383611 141.809537 41.383611 0.000000 -0.000000 1.000000 1.000000 1.000000
294 1 172.165000 163.153456 172.165000 163.153456 -0.000000 0.000000 1.000000 1.000000 1.000000
295 1 172.029199 197.970248 172.029199 197.970248 -0.000000 -0.000000 1.000000 1.000000 1.000000
296 1 6.752813 206.971181 260.510357 206.971181 0.000000 -0.000000 1.000000 1.000000 1.000000
297 1 167.794362 43.801302 167.794362 43.801302 0.000000 -0.000000 1.000000 1.000000 1.000000
298 1 213.561764 178.709481 213.561764 178.709481 0.000000 0.000000 1.000000 1.000000 1.000000
299 1 62.517643 108.638651 62.517643 108.638651 -0.000000 0.000000 1.000000 1.000000 1.000000
300 1 180.249079 184.425974 180.249079 184.425974 -0.000000 0.000000 1.000000 1.000000 1.000000
301 1 172.414049 3.275067 172.414049 3.275067 -0.000000 0.000000 1.000000 1.000000 1.000000
302 1 245.019230 109.187619 245.019230 109.187619 -0.000000 0.000000 1.000000 1.000000 1.000000
303 1 161.716927 215.685422 161.716927 215.685422 -0.000000 -0.000000 1.000000 1.000000 1.000000
304 1 242.167498 102.442484 242.167498 102.442484 -0.000000 0.000000 1.000000 1.000000 1.000000
305 1 122.475718 77.525162 122.475718 77.525162 0.000000 0.000000 1.000000 1.000000 1.000000
306 1 10.732453 1.237231 10.732453 1.237231 0.000000 0.000000 1.000000 1.000000 1.000000
307 1 199.986598 74.990387 199.986598 74.990387 0.000000 0.000000 1.000000 1.000000 1.000000
308 1 35.618321 189.153149 35.618321 189.153149 -0.000000 -0.000000 1.000000 1.000000 1.000000
309 1 74.822977 56.449248 74.822977 56.449248 -0.000000 -0.000000 1.000000 1.000000 1.000000
310 1 58.511512 39.344969 58.511512 39.344969 0.000000 -0.000000 1.000000 1.000000 1.000000
311 1 184.889411 110.747764 184.889411 110.747764 0.000000 -0.000000 1.000000 1.000000 1.000000
312 1 93.457693 122.644386 93.457693 122.644386 -0.000000 0.000000 1.000000 1.000000 1.000000
313 1 52.520314 107.703958 52.520314 107.703958 -0.000000 0.000000 1.000000 1.000000 1.000000
314 1 212.331526 83.635125 212.331526 83.635125 0.000000 0.000000 1.000000 1.000000 1.000000
315 1 192.942308 174.022004 192.942308 174.022004 0.000000 0.000000 1.000000 1.000000 1.000000
316 1 6.480551 19.821674 6.480551 19.821674 -0.000000 0.000000 1.000000 1.000000 1.000000