ITEM: TIMESTEP
1700.000000
ITEM: NUMBER OF ATOMS
5000
ITEM: BOX BOUNDS xy xz yz
0 302.895423 0
0 302.895423 0
0 2 0
ITEM: ATOMS id type x y xu yu vx vy radius m z
0 1 297.939810 64.622331 297.939810 64.622331 0.000000 -0.000000 1.000000 1.000000 1.000000
1 1 233.809433 82.442169 233.809433 82.442169 0.000000 -0.000000 1.000000 1.000000 1.000000
2 1 79.636569 86.756024 79.636569 86.756024 0.000000 -0.000000 1.000000 1.000000 1.000000
3 1 259.366197 221.096372 259.366197 221.096372 -0.000000 0.000000 1.000000 1.000000 1.000000
4 1 5.656191 74.945062 5.656191 74.945062 0.000000 -0.000000 1.000000 1.000000 1.000000
5 1 137.185852 79.414828 137.185852 79.414828 -0.000000 -0.000000 1.000000 1.000000 1.000000
6 1 186.104326 208.607593 186.104326 208.607593 -0.000000 -0.000000 1.000000 1.000000 1.000000
7 1 156.966598 227.326639 156.966598 227.326639 -0.000000 0.000000 1.000000 1.000000 1.000000
8 1 198.734646 46.419152 198.734646 46.419152 -0.000000 -0.000000 1.000000 1.000000 1.000000
9 1 46.780347 270.676367 46.780347 270.676367 -0.000000 0.000000 1.000000 1.000000 1.000000
10 1 263.492430 216.987579 263.492430 216.987579 -0.000000 -0.000000 1.000000 1.000000 1.000000
11 1 273.090655 268.408083 273.090655 268.408083 0.000000 -0.000000 1.000000 1.000000 1.000000
12 1 23.939692 203.963346 23.939692 203.963346 -0.000000 0.000000 1.000000 1.000000 1.000000
13 1 92.920007 178.248346 92.920007 178.248346 -0.000000 0.000000 1.000000 1.000000 1.000000
14 1 246.866221 36.832242 246.866221 36.832242 -0.000000 0.000000 1.000000 1.000000 1.000000
15 1 178.253196 159.452877 178.253196 159.452877 -0.000000 -0.000000 1.000000 1.000000 1.000000
16 1 178.021515 246.061085 178.021515 246.061085 0.000000 -0.000000 1.000000 1.000000 1.000000
17 1 160.241530 9.298988 160.241530 9.298988 0.000000 -0.000000 1.000000 1.000000 1.000000
18 1 40.612917 296.248244 40.612917 -6.647179 -0.000000 0.000000 1.000000 1.000000 1.000000
19 1 214.444806 32.682345 214.444806 32.682345 -0.000000 -0.000000 1.000000 1.000000 1.000000
20 1 91.617827 145.539678 91.617827 145.539678 -0.000000 0.000000 1.000000 1.000000 1.000000
21 1 218.411469 290.730156 218.411469 290.730156 0.000000 0.000000 1.000000 1.000000 1.000000
22 1 274.756485 62.541867 274.756485 62.541867 -0.000000 0.000000 1.000000 1.000000 1.000000
23 1 282.819216 117.941404 282.819216 117.941404 0.000000 0.000000 1.000000 1.000000 1.000000
24 1 203.170190 179.548702 203.170190 179.548702 0.000000 0.000000 1.000000 1.000000 1.000000
25 1 172.610507 49.402479 172.610507 49.402479 0.000000 -0.000000 1.000000 1.000000 1.000000
26 1 162.965613 209.300524 162.965613 209.300524 -0.000000 0.000000 1.000000 1.000000 1.000000
27 1 223.224331 203.249880 223.224331 203.249880 -0.000000 -0.000000 1.000000 1.000000 1.000000
28 1 154.465431 105.487087 154.465431 105.487087 -0.000000 -0.000000 1.000000 1.000000 1.000000
29 1 19.064420 97.692520 321.959843 97.692520 -0.000000 0.000000 1.000000 1.000000 1.000000
30 1 181.950706 272.437173 181.950706 272.437173 -0.000000 0.000000 1.000000 1.000000 1.000000
31 1 88.414041 138.136981 88.414041 138.136981 -0.000000 -0.000000 1.000000 1.000000 1.000000
32 1 139.378207 139.785273 139.378207 139.785273 -0.000000 0.000000 1.000000 1.000000 1.000000
33 1 26.792821 254.395909 26.792821 254.395909 0.000000 -0.000000 1.000000 1.000000 1.000000
34 1 261.455531 283.279723 261.455531 -19.615700 -0.000000 0.000000 1.000000 1.000000 1.000000
35 1 264.496232 190.488842 264.496232 190.488842 0.000000 0.000000 1.000000 1.000000 1.000000
36 1 26.006505 216.337483 26.006505 216.337483 0.000000 0.000000 1.000000 1.000000 1.000000
37 1 11.009268 201.210666 11.009268 201.210666 0.000000 0.000000 1.000000 1.000000 1.000000
38 1 145.516503 73.517223 145.516503 73.517223 0.000000 0.000000 1.000000 1.000000 1.000000
39 1 199.973152 298.318028 199.973152 298.318028 0.000000 0.000000 1.000000 1.000000 1.000000
40 1 249.809827 206.796844 249.809827 206.796844 -0.000000 -0.000000 1.000000 1.000000 1.000000
41 1 185.400999 220.667659 185.400999 220.667659 -0.000000 0.000000 1.000000 1.000000 1.000000
42 1 9.259082 245.505807 312.154505 245.505807 0.000000 -0.000000 1.000000 1.000000 1.000000
43 1 281.485789 204.972793 281.485789 204.972793 -0.000000 0.000000 1.000000 1.000000 1.000000
44 1 173.493237 106.996732 173.493237 106.996732 0.000000 0.000000 1.000000 1.000000 1.000000
45 1 12.089510 246.073516 314.984933 246.073516 0.000000 0.000000 1.000000 1.000000 1.000000
46 1 227.016292 15.555828 227.016292 15.555828 0.000000 0.000000 1.000000 1.000000 1.000000
47 1 223.382152 130.052029 223.382152 130.052029 -0.000000 -0.000000 1.000000 1.000000 1.000000
48 1 111.471496 165.328796 111.471496 165.328796 0.000000 -0.000000 1.000000 1.000000 1.000000
49 1 272.877411 144.907755 272.877411 144.907755 -0.000000 -0.000000 1.000000 1.000000 1.000000
50 1 276.272103 265.714200 276.272103 265.714200 -0.000000 0.000000 1.000000 1.000000 1.000000
51 1 278.046921 178.385254 278.046921 178.385254 -0.000000 -0.000000 1.000000 1.000000 1.000000
52 1 122.128891 244.801019 122.128891 244.801019 -0.000000 -0.000000 1.000000 1.000000 1.000000
53 1 26.399656 208.715293 26.399656 208.715293 -0.000000 -0.000000 1.000000 1.000000 1.000000
54 1 203.945455 272.159025 203.945455 -30.736398 0.000000 -0.000000 1.000000 1.000000 1.000000
55 1 259.025456 11.742366 259.025456 314.637789 0.000000 0.000000 1.000000 1.000000 1.000000
56 1 16.090782 107.728819 16.090782 107.728819 -0.000000 0.000000 1.000000 1.000000 1.000000
57 1 42.856521 58.505791 42.856521 58.505791 -0.000000 -0.000000 1.000000 1.000000 1.000000
58 1 168.539457 180.813084 168.539457 180.813084 -0.000000 0.000000 1.000000 1.000000 1.000000
59 1 148.016980 194.928627 148.016980 194.928627 -0.000000 -0.000000 1.000000 1.000000 1.000000
60 1 232.489458 89.674386 232.489458 89.674386 0.000000 0.000000 1.000000 1.000000 1.000000
61 1 209.947970 24.037700 209.947970 24.037700 -0.000000 0.000000 1.000000 1.000000 1.000000
62 1 45.440210 280.101853 45.440210 280.101853 0.000000 0.000000 1.000000 1.000000 1.000000
63 1 222.860369 195.241776 222.860369 195.241776 -0.000000 -0.000000 1.000000 1.000000 1.000000
64 1 182.416313 77.881242 182.416313 77.881242 -0.000000 0.000000 1.000000 1.000000 1.000000
65 1 36.983759 232.467123 36.983759 232.467123 0.000000 -0.000000 1.000000 1.000000 1.000000
66 1 11.616033 3.240992 11.616033 306.136415 0.000000 0.000000 1.000000 1.000000 1.000000
67 1 82.245852 262.890718 82.245852 262.890718 0.000000 0.000000 1.000000 1.000000 1.000000
68 1 245.184266 33.359920 245.184266 33.359920 -0.000000 0.000000 1.000000 1.000000 1.000000
69 1 101.837931 17.258146 101.837931 17.258146 -0.000000 -0.000000 1.000000 1.000000 1.000000
70 1 57.456235 299.949102 57.456235 299.949102 -0.000000 -0.000000 1.000000 1.000000 1.000000
71 1 288.269488 66.501331 288.269488 66.501331 0.000000 -0.000000 1.000000 1.000000 1.000000
72 1 298.675583 39.424584 -4.219840 39.424584 -0.000000 0.000000 1.000000 1.000000 1.000000
73 1 46.916257 97.016844 46.916257 97.016844 0.000000 0.000000 1.000000 1.000000 1.000000
74 1 67.271250 57.584805 67.271250 57.584805 -0.000000 0.000000 1.000000 1.000000 1.000000
75 1 1.673972 7.345491 1.673972 7.345491 -0.000000 0.000000 1.000000 1.000000 1.000000
76 1 269.686743 239.341024 269.686743 239.341024 -0.000000 0.000000 1.000000 1.000000 1.000000
77 1 75.243101 88.299166 75.243101 88.299166 0.000000 -0.000000 1.000000 1.000000 1.000000
78 1 162.513541 49.776881 162.513541 49.776881 0.000000 -0.000000 1.000000 1.000000 1.000000
79 1 43.926508 269.911341 43.926508 269.911341 0.000000 0.000000 1.000000 1.000000 1.000000
80 1 291.883825 60.182031 291.883825 60.182031 -0.000000 -0.000000 1.000000 1.000000 1.000000
81 1 14.778721 117.414998 14.778721 117.414998 -0.000000 0.000000 1.000000 1.000000 1.000000
82 1 259.170377 19.443560 259.170377 19.443560 -0.000000 0.000000 1.000000 1.000000 1.000000
83 1 158.316901 297.704606 158.316901 297.704606 -0.000000 -0.000000 1.000000 1.000000 1.000000
84 1 52.386332 105.159708 52.386332 105.159708 -0.000000 -0.000000 1.000000 1.000000 1.000000
85 1 234.252144 205.691944 234.252144 205.691944 -0.000000 -0.000000 1.000000 1.000000 1.000000
86 1 49.489692 88.231800 49.489692 88.231800 0.000000 -0.000000 1.000000 1.000000 1.000000
87 1 176.923946 233.327517 176.923946 233.327517 0.000000 -0.000000 1.000000 1.000000 1.000000
88 1 240.843495 120.752060 240.843495 120.752060 -0.000000 -0.000000 1.000000 1.000000 1.000000
89 1 44.881138 193.224599 44.881138 193.224599 -0.000000 -0.000000 1.000000 1.000000 1.000000
90 1 210.693376 245.964796 210.693376 245.964796 -0.000000 -0.000000 1.000000 1.000000 1.000000
91 1 132.017439 259.527811 132.017439 259.527811 -0.000000 -0.000000 1.000000 1.000000 1.000000
92 1 240.035516 220.599375 240.035516 220.599375 -0.000000 0.000000 1.000000 1.000000 1.000000
93 1 276.204755 58.436088 276.204755 58.436088 -0.000000 0.000000 1.000000 1.000000 1.000000
94 1 56.561043 176.633263 56.561043 176.633263 -0.000000 0.000000 1.000000 1.000000 1.000000
95 1 34.715045 44.556937 34.715045 44.556937 0.000000 0.000000 1.000000 1.000000 1.000000
96 1 49.555605 224.290800 49.555605 224.290800 0.000000 -0.000000 1.000000 1.000000 1.000000
97 1 99.422792 159.879788 99.422792 159.879788 0.000000 -0.000000 1.000000 1.000000 1.000000
98 1 132.385221 66.519955 132.385221 66.519955 -0.000000 -0.000000 1.000000 1.000000 1.000000
99 1 271.883442 92.666025 271.883442 92.666025 0.000000 0.000000 1.000000 1.000000 1.000000
100 1 33.071927 147.097089 33.071927 147.097089 -0.000000 0.000000 1.000000 1.000000 1.000000
101 1 162.759064 205.542399 162.759064 205.542399 0.000000 0.000000 1.000000 1.000000 1.000000
102 1 61.045286 121.479231 61.045286 121.479231 -0.000000 -0.000000 1.000000 1.000000 1.000000
103 1 105.283879 159.041420 105.283879 159.041420 -0.000000 -0.000000 1.000000 1.000000 1.000000
104 1 57.671786 117.688302 57.671786 117.688302 0.000000 0.000000 1.000000 1.000000 1.000000
105 1 140.057736 27.484942 140.057736 27.484942 0.000000 -0.000000 1.000000 1.000000 1.000000
106 1 271.347802 201.330942 271.347802 201.330942 0.000000 0.000000 1.000000 1.000000 1.000000
107 1 76.051743 39.141783 76.051743 39.141783 0.000000 -0.000000 1.000000 1.000000 1.000000
108 1 144.748481 140.077734 144.748481 140.077734 -0.000000 -0.000000 1.000000 1.000000 1.000000
109 1 276.540537 208.946453 276.540537 208.946453 0.000000 0.000000 1.000000 1.000000 1.000000
110 1 257.239745 69.003524 257.239745 69.003524 0.000000 -0.000000 1.000000 1.000000 1.000000
111 1 174.810861 250.049791 174.810861 250.049791 -0.000000 -0.000000 1.000000 1.000000 1.000000
112 1 96.328976 236.947264 96.328976 236.947264 -0.000000 -0.000000 1.000000 1.000000 1.000000
113 1 82.706803 98.042124 82.706803 98.042124 0.000000 -0.000000 1.000000 1.000000 1.000000
114 1 83.617745 292.913473 83.617745 292.913473 -0.000000 0.000000 1.000000 1.000000 1.000000
115 1 2.725307 224.394799 2.725307 224.394799 -0.000000 0.000000 1.000000 1.000000 1.000000
116 1 66.499333 179.075378 66.499333 179.075378 -0.000000 -0.000000 1.000000 1.000000 1.000000
117 1 229.423440 93.277805 229.423440 93.277805 -0.000000 0.000000 1.000000 1.000000 1.000000
118 1 215.332520 192.982544 215.332520 192.982544 0.000000 0.000000 1.000000 1.000000 1.000000
119 1 160.901706 101.558559 160.901706 101.558559 0.000000 -0.000000 1.000000 1.000000 1.000000
120 1 246.307327 247.659560 246.307327 247.659560 0.000000 0.000000 1.000000 1.000000 1.000000
121 1 86.990741 298.839209 86.990741 298.839209 0.000000 0.000000 1.000000 1.000000 1.000000
122 1 48.414654 187.077281 48.414654 187.077281 0.000000 -0.000000 1.000000 1.000000 1.000000
123 1 179.258786 74.489321 179.258786 74.489321 -0.000000 0.000000 1.000000 1.000000 1.000000
124 1 152.677353 70.207215 152.677353 70.207215 -0.000000 -0.000000 1.000000 1.000000 1.000000
125 1 242.138744 109.617341 242.138744 109.617341 0.000000 -0.000000 1.000000 1.000000 1.000000
126 1 218.788972 168.152693 218.788972 168.152693 -0.000000 0.000000 1.000000 1.000000 1.000000
127 1 282.565155 202.537938 282.565155 202.537938 0.000000 0.000000 1.000000 1.000000 1.000000
128 1 298.400961 291.081141 298.400961 -11.814282 -0.000000 -0.000000 1.000000 1.000000 1.000000
129 1 172.988966 269.472962 172.988966 269.472962 0.000000 0.000000 1.000000 1.000000 1.000000
130 1 248.756108 120.972065 248.756108 120.972065 -0.000000 0.000000 1.000000 1.000000 1.000000
131 1 256.603983 74.966083 256.603983 74.966083 0.000000 -0.000000 1.000000 1.000000 1.000000
132 1 133.338178 272.117364 133.338178 272.117364 0.000000 0.000000 1.000000 1.000000 1.000000
133 1 111.626043 178.284470 111.626043 178.284470 -0.000000 -0.000000 1.000000 1.000000 1.000000
134 1 292.697429 63.724487 292.697429 63.724487 -0.000000 0.000000 1.000000 1.000000 1.000000
135 1 123.781695 214.975488 123.781695 214.975488 0.000000 -0.000000 1.000000 1.000000 1.000000
136 1 62.520145 198.868640 62.520145 198.868640 -0.000000 -0.000000 1.000000 1.000000 1.000000
137 1 293.068808 288.640116 293.068808 288.640116 0.000000 0.000000 1.000000 1.000000 1.000000
138 1 211.331731 227.145800 211.331731 227.145800 -0.000000 0.000000 1.000000 1.000000 1.000000
139 1 107.538028 0.176257 107.538028 303.071680 -0.000000 0.000000 1.000000 1.000000 1.000000
140 1 186.351243 134.422592 186.351243 134.422592 -0.000000 0.000000 1.000000 1.000000 1.000000
141 1 254.528863 95.645523 254.528863 95.645523 0.000000 -0.000000 1.000000 1.000000 1.000000
142 1 72.876140 191.069645 72.876140 191.069645 0.000000 0.000000 1.000000 1.000000 1.000000
143 1 186.775037 259.629931 186.775037 259.629931 -0.000000 -0.000000 1.000000 1.000000 1.000000
144 1 196.246521 6.343422 196.246521 6.343422 0.000000 -0.000000 1.000000 1.000000 1.000000
145 1 208.813174 105.012768 208.813174 105.012768 0.000000 -0.000000 1.000000 1.000000 1.000000
146 1 92.944440 298.690270 92.944440 -4.205153 0.000000 -0.000000 1.000000 1.000000 1.000000
147 1 5.767270 109.549082 308.662693 109.549082 0.000000 -0.000000 1.000000 1.000000 1.000000
148 1 11.862677 90.467040 11.862677 90.467040 -0.000000 -0.000000 1.000000 1.000000 1.000000
149 1 158.617922 262.996752 158.617922 262.996752 0.000000 -0.000000 1.000000 1.000000 1.000000
150 1 164.373493 275.384720 164.373493 275.384720 0.000000 -0.000000 1.000000 1.000000 1.000000
151 1 217.764456 191.117744 217.764456 191.117744 -0.000000 -0.000000 1.000000 1.000000 1.000000
152 1 8.940928 189.805788 8.940928 189.805788 0.000000 0.000000 1.000000 1.000000 1.000000
153 1 0.288103 40.902478 0.288103 40.902478 -0.000000 -0.000000 1.000000 1.000000 1.000000
154 1 190.489584 247.218338 190.489584 247.218338 -0.000000 -0.000000 1.000000 1.000000 1.000000
155 1 206.314543 21.648809 206.314543 21.648809 0.000000 -0.000000 1.000000 1.000000 1.000000
156 1 244.897983 197.220100 244.897983 197.220100 -0.000000 0.000000 1.000000 1.000000 1.000000
157 1 213.024631 217.646240 213.024631 217.646240 0.000000 0.000000 1.000000 1.000000 1.000000
158 1 104.843141 16.483594 104.843141 16.483594 0.000000 -0.000000 1.000000 1.000000 1.000000
159 1 175.552297 154.877716 175.552297 154.877716 0.000000 -0.000000 1.000000 1.000000 1.000000
160 1 170.312776 150.575332 170.312776 150.575332 0.000000 -0.000000 1.000000 1.000000 1.000000
161 1 283.339855 293.239552 283.339855 293.239552 -0.000000 -0.000000 1.000000 1.000000 1.000000
162 1 219.867438 98.177844 219.867438 98.177844 -0.000000 -0.000000 1.000000 1.000000 1.000000
163 1 260.980150 31.586781 260.980150 31.586781 -0.000000 0.000000 1.000000 1.000000 1.000000
164 1 9.948598 61.006740 9.948598 61.006740 0.000000 0.000000 1.000000 1.000000 1.000000
165 1 56.577300 6.761024 56.577300 6.761024 -0.000000 0.000000 1.000000 1.000000 1.000000
166 1 56.278314 126.694118 56.278314 126.694118 0.000000 -0.000000 1.000000 1.000000 1.000000
167 1 25.980091 280.324770 25.980091 280.324770 -0.000000 0.000000 1.000000 1.000000 1.000000
168 1 285.538437 35.821293 285.538437 35.821293 -0.000000 -0.000000 1.000000 1.000000 1.000000
169 1 246.142435 236.022842 246.142435 236.022842 -0.000000 0.000000 1.000000 1.000000 1.000000
170 1 29.515978 75.460064 29.515978 75.460064 -0.000000 0.000000 1.000000 1.000000 1.000000
171 1 182.474707 98.188151 182.474707 98.188151 -0.000000 0.000000 1.000000 1.000000 1.000000
172 1 3.015422 118.238256 3.015422 118.238256 0.000000 -0.000000 1.000000 1.000000 1.000000
173 1 67.359537 35.259545 67.359537 35.259545 -0.000000 -0.000000 1.000000 1.000000 1.000000
174 1 79.005897 168.955765 79.005897 168.955765 -0.000000 0.000000 1.000000 1.000000 1.000000
175 1 43.656643 265.559219 43.656643 265.559219 -0.000000 -0.000000 1.000000 1.000000 1.000000
176 1 71.482634 28.875005 71.482634 28.875005 0.000000 -0.000000 1.000000 1.000000 1.000000
177 1 188.700624 228.456450 188.700624 228.456450 0.000000 0.000000 1.000000 1.000000 1.000000
178 1 16.028239 11.432893 16.028239 11.432893 -0.000000 0.000000 1.000000 1.000000 1.000000
179 1 96.904833 23.073230 96.904833 23.073230 0.000000 0.000000 1.000000 1.000000 1.000000
180 1 102.080593 99.574341 102.080593 99.574341 -0.000000 -0.000000 1.000000 1.000000 1.000000
181 1 109.339843 111.244620 109.339843 111.244620 -0.000000 0.000000 1.000000 1.000000 1.000000
182 1 77.728850 187.045975 77.728850 187.045975 -0.000000 0.000000 1.000000 1.000000 1.000000
183 1 247.085850 21.570372 247.085850 21.570372 -0.000000 0.000000 1.000000 1.000000 1.000000
184 1 233.772883 108.034821 233.772883 108.034821 -0.000000 0.000000 1.000000 1.000000 1.000000
185 1 144.497902 46.668058 144.497902 46.668058 0.000000 0.000000 1.000000 1.000000 1.000000
186 1 286.929293 301.243243 -15.966130 -1.652180 -0.000000 0.000000 1.000000 1.000000 1.000000
187 1 243.497740 223.259347 243.497740 223.259347 -0.000000 0.000000 1.000000 1.000000 1.000000
188 1 279.149534 226.381815 279.149534 226.381815 -0.000000 0.000000 1.000000 1.000000 1.000000
189 1 173.636089 134.035662 173.636089 134.035662 0.000000 0.000000 1.000000 1.000000 1.000000
190 1 77.214557 91.681534 77.214557 91.681534 -0.000000 0.000000 1.000000 1.000000 1.000000
191 1 31.233966 199.222272 31.233966 199.222272 0.000000 0.000000 1.000000 1.000000 1.000000
192 1 6.439983 267.162593 309.335406 267.162593 0.000000 0.000000 1.000000 1.000000 1.000000
193 1 179.967522 210.478559 179.967522 210.478559 0.000000 -0.000000 1.000000 1.000000 1.000000
194 1 258.110355 295.619195 258.110355 -7.276228 0.000000 0.000000 1.000000 1.000000 1.000000
195 1 130.782640 53.253053 130.782640 53.253053 -0.000000 0.000000 1.000000 1.000000 1.000000
196 1 179.296704 235.861857 179.296704 235.861857 -0.000000 0.000000 1.000000 1.000000 1.000000
197 1 243.729202 126.370626 243.729202 126.370626 0.000000 0.000000 1.000000 1.000000 1.000000
198 1 252.836625 36.324067 252.836625 36.324067 0.000000 -0.000000 1.000000 1.000000 1.000000
199 1 179.862919 251.097641 179.862919 251.097641 0.000000 0.000000 1.000000 1.000000 1.000000
200 1 34.786874 57.342450 34.786874 57.342450 -0.000000 -0.000000 1.000000 1.000000 1.000000
201 1 29.408796 244.964690 29.408796 244.964690 -0.000000 -0.000000 1.000000 1.000000 1.000000
202 1 110.822457 172.428129 110.822457 172.428129 -0.000000 -0.000000 1.000000 1.000000 1.000000
203 1 91.615499 151.042485 91.615499 151.042485 -0.000000 0.000000 1.000000 1.000000 1.000000
204 1 54.918439 103.689134 54.918439 103.689134 -0.000000 -0.000000 1.000000 1.000000 1.000000
205 1 31.101313 219.503099 31.101313 219.503099 -0.000000 0.000000 1.000000 1.000000 1.000000
206 1 27.038916 133.575465 27.038916 133.575465 0.000000 0.000000 1.000000 1.000000 1.000000
207 1 17.069859 173.027500 17.069859 173.027500 -0.000000 -0.000000 1.000000 1.000000 1.000000
208 1 299.625453 142.107204 299.625453 142.107204 0.000000 -0.000000 1.000000 1.000000 1.000000
209 1 180.204035 33.460660 180.204035 33.460660 0.000000 0.000000 1.000000 1.000000 1.000000
210 1 38.019036 106.986274 38.019036 106.986274 -0.000000 0.000000 1.000000 1.000000 1.000000
211 1 121.155123 52.248636 121.155123 52.248636 -0.000000 -0.000000 1.000000 1.000000 1.000000
212 1 200.681335 258.311733 200.681335 258.311733 0.000000 -0.000000 1.000000 1.000000 1.000000
213 1 191.106911 134.166711 191.106911 134.166711 0.000000 0.000000 1.000000 1.000000 1.000000
214 1 183.798672 137.850437 183.798672 137.850437 0.000000 0.000000 1.000000 1.000000 1.000000
215 1 49.228527 211.050555 49.228527 211.050555 -0.000000 -0.000000 1.000000 1.000000 1.000000
216 1 32.258156 52.166901 32.258156 52.166901 0.000000 0.000000 1.000000 1.000000 1.000000
217 1 101.614424 296.114890 101.614424 296.114890 0.000000 -0.000000 1.000000 1.000000 1.000000
218 1 29.171442 53.785738 29.171442 53.785738 -0.000000 0.000000 1.000000 1.000000 1.000000
219 1 159.049583 60.030827 159.049583 60.030827 0.000000 -0.000000 1.000000 1.000000 1.000000
220 1 291.013927 284.820213 291.013927 284.820213 -0.000000 0.000000 1.000000 1.000000 1.000000
221 1 243.595517 252.428085 243.595517 252.428085 -0.000000 -0.000000 1.000000 1.000000 1.000000
222 1 127.854909 137.380530 127.854909 137.380530 -0.000000 0.000000 1.000000 1.000000 1.000000
223 1 223.195265 132.558543 223.195265 132.558543 -0.000000 -0.000000 1.000000 1.000000 1.000000
224 1 234.009838 128.464620 234.009838 128.464620 0.000000 0.000000 1.000000 1.000000 1.000000
225 1 92.856440 256.310647 92.856440 256.310647 -0.000000 -0.000000 1.000000 1.000000 1.000000
226 1 6.677776 65.162334 6.677776 65.162334 0.000000 0.000000 1.000000 1.000000 1.000000
227 1 209.640928 259.117076 209.640928 259.117076 0.000000 -0.000000 1.000000 1.000000 1.000000
228 1 126.922669 236.047241 126.922669 236.047241 -0.000000 0.000000 1.000000 1.000000 1.000000
229 1 255.666979 187.681242 255.666979 187.681242 0.000000 -0.000000 1.000000 1.000000 1.000000
230 1 1.651138 36.895777 304.546561 36.895777 -0.000000 -0.000000 1.000000 1.000000 1.000000
231 1 273.842389 239.751926 273.842389 239.751926 0.000000 -0.000000 1.000000 1.000000 1.000000
232 1 290.888885 219.248716 290.888885 219.248716 -0.000000 -0.000000 1.000000 1.000000 1.000000
233 1 40.476549 263.045007 40.476549 263.045007 0.000000 -0.000000 1.000000 1.000000 1.000000
234 1 22.263464 83.889131 22.263464 83.889131 -0.000000 -0.000000 1.000000 1.000000 1.000000
235 1 205.102965 195.388371 205.102965 195.388371 0.000000 -0.000000 1.000000 1.000000 1.000000
236 1 174.868311 285.299524 174.868311 285.299524 0.000000 0.000000 1.000000 1.000000 1.000000
237 1 160.123876 119.839852 160.123876 119.839852 0.000000 0.000000 1.000000 1.000000 1.000000
238 1 173.261496 81.071158 173.261496 81.071158 -0.000000 -0.000000 1.000000 1.000000 1.000000
239 1 174.620053 171.177533 174.620053 171.177533 -0.000000 -0.000000 1.000000 1.000000 1.000000
240 1 133.430343 36.072143 133.430343 36.072143 -0.000000 0.000000 1.000000 1.000000 1.000000
241 1 179.558556 259.517862 179.558556 259.517862 0.000000 -0.000000 1.000000 1.000000 1.000000
242 1 113.968520 55.121800 113.968520 55.121800 0.000000 0.000000 1.000000 1.000000 1.000000
243 1 238.480798 137.893133 238.480798 137.893133 0.000000 -0.000000 1.000000 1.000000 1.000000
244 1 18.509631 229.208307 18.509631 229.208307 -0.000000 -0.000000 1.000000 1.000000 1.000000
245 1 48.018437 237.718094 48.018437 237.718094 -0.000000 0.000000 1.000000 1.000000 1.000000
246 1 74.968340 181.940316 74.968340 181.940316 -0.000000 -0.000000 1.000000 1.000000 1.000000
247 1 285.811263 83.096894 285.811263 83.096894 -0.000000 -0.000000 1.000000 1.000000 1.000000
248 1 301.796300 140.287117 301.796300 140.287117 0.000000 0.000000 1.000000 1.000000 1.000000
249 1 35.458977 68.262648 35.458977 68.262648 0.000000 -0.000000 1.000000 1.000000 1.000000
250 1 134.507736 68.877914 134.507736 68.877914 -0.000000 0.000000 1.000000 1.000000 1.000000
251 1 99.132785 207.510484 99.132785 207.510484 0.000000 0.000000 1.000000 1.000000 1.000000
252 1 141.521675 236.120158 141.521675 236.120158 0.000000 0.000000 1.000000 1.000000 1.000000
253 1 4.974154 100.371021 4.974154 100.371021 0.000000 0.000000 1.000000 1.000000 1.000000
254 1 205.952708 139.397217 205.952708 139.397217 0.000000 -0.000000 1.000000 1.000000 1.000000
255 1 37.344108 150.058586 37.344108 150.058586 -0.000000 0.000000 1.000000 1.000000 1.000000
256 1 50.734729 276.028567 50.734729 276.028567 0.000000 0.000000 1.000000 1.000000 1.000000
257 1 77.286440 122.925406 77.286440 122.925406 -0.000000 0.000000 1.000000 1.000000 1.000000
258 1 289.312263 264.297995 -13.583160 264.297995 0.000000 -0.000000 1.000000 1.000000 1.000000
259 1 227.878555 123.464978 227.878555 123.464978 -0.000000 -0.000000 1.000000 1.000000 1.000000
260 1 39.964028 266.832920 39.964028 266.832920 -0.000000 -0.000000 1.000000 1.000000 1.000000
261 1 97.665371 271.516537 97.665371 271.516537 0.000000 -0.000000 1.000000 1.000000 1.000000
262 1 92.522897 209.863129 92.522897 209.863129 0.000000 -0.000000 1.000000 1.000000 1.000000
263 1 288.001077 30.269756 288.001077 30.269756 0.000000 -0.000000 1.000000 1.000000 1.000000
264 1 234.819479 280.002173 234.819479 280.002173 -0.000000 -0.000000 1.000000 1.000000 1.000000
265 1 271.592953 88.356894 -31.302470 88.356894 -0.000000 0.000000 1.000000 1.000000 1.000000
266 1 126.386084 211.688460 126.386084 211.688460 -0.000000 -0.000000 1.000000 1.000000 1.000000
267 1 50.225811 61.308603 50.225811 61.308603 0.000000 0.000000 1.000000 1.000000 1.000000
268 1 103.108390 140.123885 103.108390 140.123885 0.000000 0.000000 1.000000 1.000000 1.000000
269 1 61.213238 123.957442 61.213238 123.957442 -0.000000 0.000000 1.000000 1.000000 1.000000
270 1 224.945433 155.566912 224.945433 155.566912 0.000000 -0.000000 1.000000 1.000000 1.000000
271 1 117.093225 142.673187 117.093225 142.673187 0.000000 -0.000000 1.000000 1.000000 1.000000
272 1 88.821345 32.998346 88.821345 32.998346 0.000000 0.000000 1.000000 1.000000 1.000000
273 1 281.379217 49.558769 281.379217 49.558769 0.000000 -0.000000 1.000000 1.000000 1.000000
274 1 122.575034 186.586758 122.575034 186.586758 0.000000 0.000000 1.000000 1.000000 1.000000
275 1 207.568143 135.238305 207.568143 135.238305 -0.000000 -0.000000 1.000000 1.000000 1.000000
276 1 222.340042 214.798170 222.340042 214.798170 -0.000000 0.000000 1.000000 1.000000 1.000000
277 1 233.067707 68.265794 233.067707 68.265794 -0.000000 0.000000 1.000000 1.000000 1.000000
278 1 76.547446 6.076667 76.547446 6.076667 0.000000 -0.000000 1.000000 1.000000 1.000000
279 1 228.485383 190.296398 228.485383 190.296398 0.000000 0.000000 1.000000 1.000000 1.000000
280 1 42.334485 286.719890 42.334485 286.719890 0.000000 0.000000 1.000000 1.000000 1.000000
281 1 243.050603 114.049615 243.050603 114.049615 0.000000 0.000000 1.000000 1.000000 1.000000
282 1 264.606249 165.502373 264.606249 165.502373 0.000000 -0.000000 1.000000 1.000000 1.000000
283 1 119.793889 174.774123 119.793889 174.774123 0.000000 0.000000 1.000000 1.000000 1.000000
284 1 131.649575 60.619033 131.649575 60.619033 -0.000000 -0.000000 1.000000 1.000000 1.000000
285 1 199.966661 20.164145 199.966661 20.164145 0.000001 0.000000 1.000000 1.000000 1.000000
286 1 148.159520 115.752428 148.159520 115.752428 -0.000000 -0.000000 1.000000 1.000000 1.000000
287 1 10.313505 54.718828 313.208928 54.718828 0.000000 0.000000 1.000000 1.000000 1.000000
288 1 182.395397 159.455724 182.395397 159.455724 0.000000 0.000000 1.000000 1.000000 1.000000
289 1 45.253080 80.763331 45.253080 80.763331 -0.000000 -0.000000 1.000000 1.000000 1.000000
290 1 220.202324 36.318014 220.202324 36.318014 -0.000000 -0.000000 1.000000 1.000000 1.000000
291 1 57.139635 224.178761 57.139635 224.178761 -0.000000 -0.000000 1.000000 1.000000 1.000000
292 1 57.287735 205.466766 57.287735 205.466766 0.000000 0.000000 1.000000 1.000000 1.000000
293 1 96.888955 218.425281 96.888955 218.425281 0.000000 -0.000000 1.000000 1.000000 1.000000
294 1 38.773304 222.861406 38.773304 222.861406 -0.000000 0.000000 1.000000 1.000000 1.000000
295 1 288.519950 77.382032 288.519950 77.382032 -0.000000 -0.000000 1.000000 1.000000 1.000000
296 1 119.738077 206.689686 119.738077 206.689686 -0.000000 -0.000000 1.000000 1.000000 1.000000
297 1 144.660090 210.944024 144.660090 210.944024 0.000000 0.000000 1.000000 1.000000 1.000000
298 1 45.581728 199.302321 45.581728 199.302321 0.000000 0.000000 1.000000 1.000000 1.000000
299 1 95.883530 117.186865 95.883530 117.186865 -0.000000 0.000000 1.000000 1.000000 1.000000
300 1 265.827460 2.189362 265.827460 305.084785 0.000000 0.000000 1.000000 1.000000 1.000000
301 1 272.001534 112.937658 272.001534 112.937658 0.000000 0.000000 1.000000 1.000000 1.000000
302 1 62.248471 4.812411 62.248471 307.707834 0.000000 0.000000 1.000000 1.000000 1.000000
303 1 155.621604 117.531475 155.621604 117.531475 0.000000 0.000000 1.000000 1.000000 1.000000
304 1 200.570508 43.952191 200.570508 43.952191 -0.000000 0.000000 1.000000 1.000000 1.000000
305 1 284.568882 128.771200 284.568882 128.771200 -0.000000 0.000000 1.000000 1.000000 1.000000
306 1 296.553152 20.513282 -6.342271 20.513282 -0.000000 0.000000 1.000000 1.000000 1.000000
307 1 206.108631 13.216999 206.108631 13.216999 0.000000 0.000000 1.000000 1.000000 1.000000
308 1 107.935077 106.262805 107.935077 106.262805 0.000000 -0.000000 1.000000 1.000000 1.000000
309 1 179.344625 17.577607 179.344625 17.577607 0.000000 -0.000000 1.000000 1.000000 1.000000
310 1 48.606825 33.008727 48.606825 33.008727 0.000000 -0.000000 1.000000 1.000000 1.000000
311 1 288.354602 238.435939 288.354602 238.435939 0.000000 0.000000 1.000000 1.000000 1.000000
312 1 292.065359 191.935692 292.065359 191.935692 0.000000 -0.000000 1.000000 1.000000 1.000000
313 1 13.954825 138.632038 13.954825 138.632038 0.000000 -0.000000 1.000000 1.000000 1.000000
314 1 179.037142 285.861789 179.037142 -17.033634 -0.000000 -0.000000 1.000000 1.000000 1.000000
315 1 257.568036 210.132790 257.568036 210.132790 -0.000000 -0.000000 1.000000 1.000000 1.000000