ITEM: TIMESTEP
900.000000
ITEM: NUMBER OF ATOMS
5000
ITEM: BOX BOUNDS xy xz yz
0 279.193970 0
0 279.193970 0
0 2 0
ITEM: ATOMS id type x y xu yu vx vy radius m z
0 1 207.660032 120.311859 207.660032 120.311859 0.000000 0.000000 1.000000 1.000000 1.000000
1 1 42.018461 217.836378 42.018461 217.836378 -0.000000 -0.000000 1.000000 1.000000 1.000000
2 1 95.431728 234.150436 95.431728 234.150436 -0.000000 -0.000000 1.000000 1.000000 1.000000
3 1 97.305887 254.003364 97.305887 254.003364 -0.000000 -0.000000 1.000000 1.000000 1.000000
4 1 192.375184 149.251321 192.375184 149.251321 -0.000000 -0.000000 1.000000 1.000000 1.000000
5 1 265.298931 245.916354 265.298931 245.916354 -0.000000 -0.000000 1.000000 1.000000 1.000000
6 1 95.626075 105.366239 95.626075 105.366239 0.000000 0.000000 1.000000 1.000000 1.000000
7 1 227.855651 71.536234 227.855651 71.536234 -0.000000 0.000000 1.000000 1.000000 1.000000
8 1 123.876624 265.619096 123.876624 265.619096 -0.000000 0.000000 1.000000 1.000000 1.000000
9 1 80.771956 189.460977 80.771956 189.460977 0.000000 0.000000 1.000000 1.000000 1.000000
10 1 112.158413 201.289043 112.158413 201.289043 0.000000 -0.000000 1.000000 1.000000 1.000000
11 1 85.727720 195.590033 85.727720 195.590033 0.000000 -0.000000 1.000000 1.000000 1.000000
12 1 199.310559 137.296271 199.310559 137.296271 -0.000000 -0.000000 1.000000 1.000000 1.000000
13 1 195.976676 75.731174 195.976676 75.731174 -0.000000 -0.000000 1.000000 1.000000 1.000000
14 1 195.299113 149.589757 195.299113 149.589757 0.000000 -0.000000 1.000000 1.000000 1.000000
15 1 178.887484 208.894194 178.887484 208.894194 0.000000 -0.000000 1.000000 1.000000 1.000000
16 1 191.589825 122.689850 191.589825 122.689850 0.000000 0.000000 1.000000 1.000000 1.000000
17 1 126.659249 255.580572 126.659249 255.580572 0.000000 0.000000 1.000000 1.000000 1.000000
18 1 92.390465 166.906603 92.390465 166.906603 0.000000 -0.000000 1.000000 1.000000 1.000000
19 1 253.933315 213.497144 253.933315 213.497144 0.000000 -0.000000 1.000000 1.000000 1.000000
20 1 126.601793 104.191970 126.601793 104.191970 0.000000 -0.000000 1.000000 1.000000 1.000000
21 1 256.403145 202.944879 256.403145 202.944879 0.000000 0.000000 1.000000 1.000000 1.000000
22 1 89.015977 251.178128 89.015977 251.178128 -0.000000 0.000000 1.000000 1.000000 1.000000
23 1 132.702382 192.371397 132.702382 192.371397 -0.000000 -0.000000 1.000000 1.000000 1.000000
24 1 184.955554 75.225058 184.955554 75.225058 0.000000 -0.000000 1.000000 1.000000 1.000000
25 1 55.582373 38.390812 55.582373 38.390812 0.000000 0.000000 1.000000 1.000000 1.000000
26 1 144.560476 17.077517 144.560476 17.077517 -0.000000 0.000000 1.000000 1.000000 1.000000
27 1 68.259573 237.667495 68.259573 237.667495 -0.000000 0.000000 1.000000 1.000000 1.000000
28 1 238.279263 215.629384 238.279263 215.629384 -0.000000 -0.000000 1.000000 1.000000 1.000000
29 1 248.479590 162.263127 248.479590 162.263127 0.000000 -0.000000 1.000000 1.000000 1.000000
30 1 9.381855 25.317628 9.381855 25.317628 -0.000000 0.000000 1.000000 1.000000 1.000000
31 1 95.589877 76.393583 95.589877 76.393583 0.000000 0.000000 1.000000 1.000000 1.000000
32 1 222.465014 49.464244 222.465014 49.464244 0.000000 0.000000 1.000000 1.000000 1.000000
33 1 259.639675 109.117502 259.639675 109.117502 -0.000000 0.000000 1.000000 1.000000 1.000000
34 1 125.496049 174.065532 125.496049 174.065532 -0.000000 0.000000 1.000000 1.000000 1.000000
35 1 230.052865 273.259664 230.052865 273.259664 -0.000000 0.000000 1.000000 1.000000 1.000000
36 1 28.324738 257.426942 28.324738 257.426942 -0.000000 0.000000 1.000000 1.000000 1.000000
37 1 44.340857 164.195126 44.340857 164.195126 -0.000000 -0.000000 1.000000 1.000000 1.000000
38 1 100.866234 148.892059 100.866234 148.892059 -0.000000 0.000000 1.000000 1.000000 1.000000
39 1 32.449130 104.607219 32.449130 104.607219 -0.000000 0.000000 1.000000 1.000000 1.000000
40 1 278.998460 156.784379 -0.195510 156.784379 -0.000000 -0.000000 1.000000 1.000000 1.000000
41 1 156.684746 273.648486 156.684746 273.648486 0.000000 -0.000000 1.000000 1.000000 1.000000
42 1 41.241157 73.019318 41.241157 73.019318 0.000000 0.000000 1.000000 1.000000 1.000000
43 1 34.139588 134.452044 34.139588 134.452044 0.000000 -0.000000 1.000000 1.000000 1.000000
44 1 17.961647 4.839231 17.961647 4.839231 -0.000000 0.000000 1.000000 1.000000 1.000000
45 1 271.780290 230.093537 271.780290 230.093537 -0.000000 -0.000000 1.000000 1.000000 1.000000
46 1 152.002569 181.000514 152.002569 181.000514 0.000000 0.000000 1.000000 1.000000 1.000000
47 1 131.883832 35.410903 131.883832 35.410903 0.000000 0.000000 1.000000 1.000000 1.000000
48 1 28.318293 6.648147 28.318293 6.648147 0.000000 0.000000 1.000000 1.000000 1.000000
49 1 211.694641 196.785535 211.694641 196.785535 -0.000000 0.000000 1.000000 1.000000 1.000000
50 1 278.481579 37.544809 -0.712391 37.544809 -0.000000 0.000000 1.000000 1.000000 1.000000
51 1 199.300802 113.465948 199.300802 113.465948 0.000000 0.000000 1.000000 1.000000 1.000000
52 1 50.200284 259.940092 50.200284 259.940092 -0.000000 -0.000000 1.000000 1.000000 1.000000
53 1 26.400880 271.210384 26.400880 -7.983586 -0.000000 -0.000000 1.000000 1.000000 1.000000
54 1 115.794120 273.038389 115.794120 273.038389 -0.000000 -0.000000 1.000000 1.000000 1.000000
55 1 239.460235 153.502796 239.460235 153.502796 -0.000000 -0.000000 1.000000 1.000000 1.000000
56 1 262.898451 192.885127 262.898451 192.885127 0.000000 0.000000 1.000000 1.000000 1.000000
57 1 187.394624 214.171870 187.394624 214.171870 0.000000 0.000000 1.000000 1.000000 1.000000
58 1 254.532022 277.914474 254.532022 277.914474 -0.000000 -0.000000 1.000000 1.000000 1.000000
59 1 149.979645 44.343481 149.979645 44.343481 0.000000 0.000000 1.000000 1.000000 1.000000
60 1 62.149807 98.683202 62.149807 98.683202 0.000000 0.000000 1.000000 1.000000 1.000000
61 1 116.785086 159.747314 116.785086 159.747314 -0.000000 -0.000000 1.000000 1.000000 1.000000
62 1 181.242600 230.859511 181.242600 230.859511 -0.000000 -0.000000 1.000000 1.000000 1.000000
63 1 35.977273 131.321294 35.977273 131.321294 -0.000000 -0.000000 1.000000 1.000000 1.000000
64 1 145.234837 245.125320 145.234837 245.125320 -0.000000 -0.000000 1.000000 1.000000 1.000000
65 1 276.580673 83.574699 -2.613297 83.574699 0.000000 -0.000000 1.000000 1.000000 1.000000
66 1 95.990271 182.175232 95.990271 182.175232 0.000000 -0.000000 1.000000 1.000000 1.000000
67 1 70.532644 157.317525 70.532644 157.317525 0.000000 0.000000 1.000000 1.000000 1.000000
68 1 57.596602 84.402346 57.596602 84.402346 0.000000 0.000000 1.000000 1.000000 1.000000
69 1 158.008721 231.521157 158.008721 231.521157 -0.000000 0.000000 1.000000 1.000000 1.000000
70 1 164.251057 30.384649 164.251057 30.384649 0.000000 0.000000 1.000000 1.000000 1.000000
71 1 11.738608 15.143410 11.738608 15.143410 -0.000000 -0.000000 1.000000 1.000000 1.000000
72 1 213.447621 134.233877 213.447621 134.233877 0.000000 -0.000000 1.000000 1.000000 1.000000
73 1 210.091404 124.399978 210.091404 124.399978 -0.000000 0.000000 1.000000 1.000000 1.000000
74 1 277.893571 260.185490 277.893571 -19.008480 0.000000 0.000000 1.000000 1.000000 1.000000
75 1 69.557091 92.492679 69.557091 92.492679 -0.000000 -0.000000 1.000000 1.000000 1.000000
76 1 86.686794 1.692032 86.686794 1.692032 -0.000000 0.000000 1.000000 1.000000 1.000000
77 1 46.911352 191.660514 46.911352 191.660514 -0.000000 -0.000000 1.000000 1.000000 1.000000
78 1 156.296739 119.553541 156.296739 119.553541 -0.000000 -0.000000 1.000000 1.000000 1.000000
79 1 237.883904 98.766938 237.883904 98.766938 -0.000000 0.000000 1.000000 1.000000 1.000000
80 1 173.842025 271.973918 173.842025 271.973918 0.000000 -0.000000 1.000000 1.000000 1.000000
81 1 207.142603 149.912783 207.142603 149.912783 -0.000000 0.000000 1.000000 1.000000 1.000000
82 1 124.345923 274.894811 124.345923 274.894811 0.000000 0.000000 1.000000 1.000000 1.000000
83 1 76.034988 137.384846 76.034988 137.384846 0.000000 -0.000000 1.000000 1.000000 1.000000
84 1 277.188723 183.418327 277.188723 183.418327 0.000000 0.000000 1.000000 1.000000 1.000000
85 1 27.912438 277.544001 27.912438 277.544001 0.000000 -0.000000 1.000000 1.000000 1.000000
86 1 228.857149 82.602274 228.857149 82.602274 -0.000000 0.000000 1.000000 1.000000 1.000000
87 1 210.942894 71.686406 210.942894 71.686406 0.000000 0.000000 1.000000 1.000000 1.000000
88 1 170.513682 208.635366 170.513682 208.635366 -0.000000 -0.000000 1.000000 1.000000 1.000000
89 1 272.526139 130.876296 272.526139 130.876296 -0.000000 0.000000 1.000000 1.000000 1.000000
90 1 1.839134 62.050847 281.033104 62.050847 0.000000 -0.000000 1.000000 1.000000 1.000000
91 1 32.405893 59.294127 32.405893 59.294127 0.000000 0.000000 1.000000 1.000000 1.000000
92 1 224.914747 231.570157 224.914747 231.570157 0.000000 -0.000000 1.000000 1.000000 1.000000
93 1 192.423602 146.131624 192.423602 146.131624 -0.000000 -0.000000 1.000000 1.000000 1.000000
94 1 232.144302 200.542375 232.144302 200.542375 -0.000000 -0.000000 1.000000 1.000000 1.000000
95 1 204.410462 242.114559 204.410462 242.114559 0.000000 0.000000 1.000000 1.000000 1.000000
96 1 221.480923 20.296391 221.480923 299.490361 -0.000000 0.000000 1.000000 1.000000 1.000000
97 1 244.055707 253.048145 244.055707 253.048145 -0.000000 -0.000000 1.000000 1.000000 1.000000
98 1 187.906194 28.146302 187.906194 28.146302 -0.000000 0.000000 1.000000 1.000000 1.000000
99 1 161.571414 172.632489 161.571414 172.632489 -0.000000 0.000000 1.000000 1.000000 1.000000
100 1 196.102825 199.758969 196.102825 199.758969 -0.000000 -0.000000 1.000000 1.000000 1.000000
101 1 277.822683 129.294344 277.822683 129.294344 -0.000000 0.000000 1.000000 1.000000 1.000000
102 1 125.079358 155.004718 125.079358 155.004718 -0.000000 -0.000000 1.000000 1.000000 1.000000
103 1 241.566310 123.008459 241.566310 123.008459 0.000000 -0.000000 1.000000 1.000000 1.000000
104 1 47.172692 217.086925 47.172692 217.086925 -0.000000 0.000000 1.000000 1.000000 1.000000
105 1 90.079082 116.825070 90.079082 116.825070 -0.000000 0.000000 1.000000 1.000000 1.000000
106 1 12.884127 143.591258 12.884127 143.591258 0.000000 0.000000 1.000000 1.000000 1.000000
107 1 87.323009 154.368012 87.323009 154.368012 -0.000000 0.000000 1.000000 1.000000 1.000000
108 1 171.386087 238.509730 171.386087 238.509730 -0.000000 0.000000 1.000000 1.000000 1.000000
109 1 1.910409 142.338456 281.104379 142.338456 0.000000 0.000000 1.000000 1.000000 1.000000
110 1 226.527029 240.483749 226.527029 240.483749 -0.000000 -0.000000 1.000000 1.000000 1.000000
111 1 243.929025 240.328723 243.929025 240.328723 -0.000000 0.000000 1.000000 1.000000 1.000000
112 1 232.033275 224.944082 232.033275 224.944082 0.000000 0.000000 1.000000 1.000000 1.000000
113 1 12.693394 57.888894 12.693394 57.888894 -0.000000 -0.000000 1.000000 1.000000 1.000000
114 1 29.969712 191.346763 29.969712 191.346763 0.000000 -0.000000 1.000000 1.000000 1.000000
115 1 221.091167 197.218067 221.091167 197.218067 0.000000 0.000000 1.000000 1.000000 1.000000
116 1 120.318000 252.719903 120.318000 252.719903 0.000000 0.000000 1.000000 1.000000 1.000000
117 1 24.561564 90.811572 24.561564 90.811572 0.000000 -0.000000 1.000000 1.000000 1.000000
118 1 202.013204 120.191953 202.013204 120.191953 -0.000000 0.000000 1.000000 1.000000 1.000000
119 1 23.620162 228.564555 302.814132 228.564555 -0.000000 -0.000000 1.000000 1.000000 1.000000
120 1 201.070839 171.059592 201.070839 171.059592 -0.000000 -0.000000 1.000000 1.000000 1.000000
121 1 263.691387 0.396082 263.691387 279.590052 -0.000000 0.000000 1.000000 1.000000 1.000000
122 1 82.467948 79.164231 82.467948 79.164231 0.000000 -0.000000 1.000000 1.000000 1.000000
123 1 22.204535 162.216608 22.204535 162.216608 0.000000 0.000000 1.000000 1.000000 1.000000
124 1 222.560799 274.818064 222.560799 274.818064 0.000000 -0.000000 1.000000 1.000000 1.000000
125 1 250.401166 139.858681 250.401166 139.858681 0.000000 0.000000 1.000000 1.000000 1.000000
126 1 226.826762 229.792868 226.826762 229.792868 0.000000 -0.000000 1.000000 1.000000 1.000000
127 1 102.642833 0.108923 102.642833 0.108923 0.000000 0.000000 1.000000 1.000000 1.000000
128 1 180.501435 176.214426 180.501435 176.214426 -0.000000 0.000000 1.000000 1.000000 1.000000
129 1 199.483432 53.422368 199.483432 53.422368 -0.000000 0.000000 1.000000 1.000000 1.000000
130 1 105.186630 199.599775 105.186630 199.599775 0.000000 0.000000 1.000000 1.000000 1.000000
131 1 141.862821 119.125814 141.862821 119.125814 0.000000 -0.000000 1.000000 1.000000 1.000000
132 1 225.035910 86.371524 225.035910 86.371524 0.000000 -0.000000 1.000000 1.000000 1.000000
133 1 46.073555 168.727470 46.073555 168.727470 0.000000 -0.000000 1.000000 1.000000 1.000000
134 1 108.266068 206.657792 108.266068 206.657792 -0.000000 -0.000000 1.000000 1.000000 1.000000
135 1 14.376365 136.658554 14.376365 136.658554 -0.000000 0.000000 1.000000 1.000000 1.000000
136 1 232.463973 32.256282 232.463973 32.256282 0.000000 0.000000 1.000000 1.000000 1.000000
137 1 207.865273 250.330301 207.865273 250.330301 -0.000000 0.000000 1.000000 1.000000 1.000000
138 1 265.863244 228.336482 265.863244 228.336482 -0.000000 -0.000000 1.000000 1.000000 1.000000
139 1 50.467392 45.813854 50.467392 45.813854 -0.000000 -0.000000 1.000000 1.000000 1.000000
140 1 19.068554 83.736341 298.262524 83.736341 0.000000 0.000000 1.000000 1.000000 1.000000
141 1 21.939131 264.282665 21.939131 264.282665 -0.000000 0.000000 1.000000 1.000000 1.000000
142 1 135.974194 213.740727 135.974194 213.740727 0.000000 -0.000000 1.000000 1.000000 1.000000
143 1 147.573462 139.155365 147.573462 139.155365 0.000000 0.000000 1.000000 1.000000 1.000000
144 1 54.540834 93.970878 54.540834 93.970878 0.000000 -0.000000 1.000000 1.000000 1.000000
145 1 222.675291 34.056371 222.675291 34.056371 -0.000000 0.000000 1.000000 1.000000 1.000000
146 1 76.709526 58.637276 76.709526 58.637276 -0.000000 -0.000000 1.000000 1.000000 1.000000
147 1 173.659787 61.359943 173.659787 61.359943 0.000000 0.000000 1.000000 1.000000 1.000000
148 1 197.885995 25.858193 197.885995 25.858193 0.000000 0.000000 1.000000 1.000000 1.000000
149 1 171.690510 184.817086 171.690510 184.817086 -0.000000 -0.000000 1.000000 1.000000 1.000000
150 1 178.566125 47.470374 178.566125 47.470374 0.000000 0.000000 1.000000 1.000000 1.000000
151 1 88.364367 83.388049 88.364367 83.388049 -0.000000 0.000000 1.000000 1.000000 1.000000
152 1 252.719050 120.380476 252.719050 120.380476 -0.000000 0.000000 1.000000 1.000000 1.000000
153 1 189.651819 25.025526 189.651819 25.025526 -0.000000 -0.000000 1.000000 1.000000 1.000000
154 1 166.272044 270.177260 166.272044 270.177260 -0.000000 -0.000000 1.000000 1.000000 1.000000
155 1 189.708050 18.434288 189.708050 18.434288 -0.000000 -0.000000 1.000000 1.000000 1.000000
156 1 270.730198 90.050196 270.730198 90.050196 -0.000000 -0.000000 1.000000 1.000000 1.000000
157 1 170.903933 276.495835 170.903933 -2.698135 0.000000 -0.000000 1.000000 1.000000 1.000000
158 1 18.679491 247.782898 18.679491 247.782898 -0.000000 0.000000 1.000000 1.000000 1.000000
159 1 278.453592 17.170553 278.453592 17.170553 -0.000000 -0.000000 1.000000 1.000000 1.000000
160 1 127.425004 246.295095 127.425004 246.295095 0.000000 -0.000000 1.000000 1.000000 1.000000
161 1 60.873783 96.382873 60.873783 96.382873 -0.000000 0.000000 1.000000 1.000000 1.000000
162 1 185.448724 259.422435 185.448724 259.422435 0.000000 0.000000 1.000000 1.000000 1.000000
163 1 182.472427 104.620939 182.472427 104.620939 -0.000000 -0.000000 1.000000 1.000000 1.000000
164 1 183.773642 191.060085 183.773642 191.060085 0.000000 0.000000 1.000000 1.000000 1.000000
165 1 191.639120 111.578326 191.639120 111.578326 0.000000 -0.000000 1.000000 1.000000 1.000000
166 1 220.156991 175.422315 220.156991 175.422315 -0.000000 -0.000000 1.000000 1.000000 1.000000
167 1 28.078797 162.546726 28.078797 162.546726 -0.000000 0.000000 1.000000 1.000000 1.000000
168 1 105.995646 18.766532 105.995646 18.766532 0.000000 -0.000000 1.000000 1.000000 1.000000
169 1 41.515019 275.524675 41.515019 -3.669295 0.000000 0.000000 1.000000 1.000000 1.000000
170 1 252.643707 235.845899 252.643707 235.845899 0.000000 0.000000 1.000000 1.000000 1.000000
171 1 239.567497 151.230332 239.567497 151.230332 -0.000000 0.000000 1.000000 1.000000 1.000000
172 1 149.852503 226.298919 149.852503 226.298919 0.000000 0.000000 1.000000 1.000000 1.000000
173 1 62.292050 222.279356 62.292050 222.279356 0.000000 0.000000 1.000000 1.000000 1.000000
174 1 148.451483 272.153626 148.451483 -7.040344 -0.000000 -0.000000 1.000000 1.000000 1.000000
175 1 31.444643 204.074827 31.444643 204.074827 0.000000 0.000000 1.000000 1.000000 1.000000
176 1 173.104454 97.069347 173.104454 97.069347 -0.000000 -0.000000 1.000000 1.000000 1.000000
177 1 144.375665 52.747512 144.375665 52.747512 0.000000 0.000000 1.000000 1.000000 1.000000
178 1 18.546613 59.357919 18.546613 59.357919 -0.000000 0.000000 1.000000 1.000000 1.000000
179 1 165.361685 233.234578 165.361685 233.234578 0.000000 0.000000 1.000000 1.000000 1.000000
180 1 32.859328 195.333441 32.859328 195.333441 -0.000000 -0.000000 1.000000 1.000000 1.000000
181 1 144.567845 68.870137 144.567845 68.870137 -0.000000 0.000000 1.000000 1.000000 1.000000
182 1 77.440182 134.154560 77.440182 134.154560 0.000000 -0.000000 1.000000 1.000000 1.000000
183 1 55.492495 165.443219 55.492495 165.443219 0.000000 -0.000000 1.000000 1.000000 1.000000
184 1 254.827170 21.634669 254.827170 21.634669 -0.000000 0.000000 1.000000 1.000000 1.000000
185 1 153.583745 85.933981 153.583745 85.933981 0.000000 -0.000000 1.000000 1.000000 1.000000
186 1 26.412249 249.318401 26.412249 249.318401 -0.000000 -0.000000 1.000000 1.000000 1.000000
187 1 221.542488 125.409766 221.542488 125.409766 -0.000000 -0.000000 1.000000 1.000000 1.000000
188 1 219.175977 155.696250 219.175977 155.696250 -0.000000 -0.000000 1.000000 1.000000 1.000000
189 1 261.314494 155.617980 261.314494 155.617980 0.000000 0.000000 1.000000 1.000000 1.000000
190 1 242.634493 177.927949 242.634493 177.927949 -0.000000 -0.000000 1.000000 1.000000 1.000000
191 1 231.019256 138.544616 231.019256 138.544616 -0.000000 -0.000000 1.000000 1.000000 1.000000
192 1 97.279710 271.255107 97.279710 271.255107 0.000000 -0.000000 1.000000 1.000000 1.000000
193 1 241.109487 62.673696 241.109487 62.673696 -0.000000 0.000000 1.000000 1.000000 1.000000
194 1 60.464965 47.086860 60.464965 47.086860 -0.000000 0.000000 1.000000 1.000000 1.000000
195 1 236.221992 248.344388 236.221992 248.344388 0.000000 0.000000 1.000000 1.000000 1.000000
196 1 168.544623 40.891814 168.544623 40.891814 -0.000000 0.000000 1.000000 1.000000 1.000000
197 1 186.733676 188.205669 186.733676 188.205669 0.000000 -0.000000 1.000000 1.000000 1.000000
198 1 201.832043 199.055528 201.832043 199.055528 -0.000000 0.000000 1.000000 1.000000 1.000000
199 1 182.213042 259.342808 182.213042 259.342808 -0.000000 0.000000 1.000000 1.000000 1.000000
200 1 78.267919 137.268143 78.267919 137.268143 -0.000000 0.000000 1.000000 1.000000 1.000000
201 1 81.222478 172.698694 81.222478 172.698694 -0.000000 -0.000000 1.000000 1.000000 1.000000
202 1 14.574450 264.401493 14.574450 264.401493 -0.000000 -0.000000 1.000000 1.000000 1.000000
203 1 120.828029 278.543043 120.828029 -0.650927 0.000000 -0.000000 1.000000 1.000000 1.000000
204 1 144.543425 45.838753 144.543425 45.838753 0.000000 0.000000 1.000000 1.000000 1.000000
205 1 30.720902 120.378726 30.720902 120.378726 0.000000 0.000000 1.000000 1.000000 1.000000
206 1 190.112467 93.011254 190.112467 93.011254 -0.000000 0.000000 1.000000 1.000000 1.000000
207 1 6.478232 161.457984 6.478232 161.457984 -0.000000 0.000000 1.000000 1.000000 1.000000
208 1 7.718949 233.760059 7.718949 233.760059 -0.000000 -0.000000 1.000000 1.000000 1.000000
209 1 266.223218 213.491480 266.223218 213.491480 0.000000 0.000000 1.000000 1.000000 1.000000
210 1 72.020003 49.662817 72.020003 49.662817 0.000000 0.000000 1.000000 1.000000 1.000000
211 1 180.022570 240.640994 180.022570 240.640994 -0.000000 0.000000 1.000000 1.000000 1.000000
212 1 160.983066 262.692331 160.983066 262.692331 0.000000 0.000000 1.000000 1.000000 1.000000
213 1 117.603164 67.696520 117.603164 67.696520 -0.000000 0.000000 1.000000 1.000000 1.000000
214 1 52.933053 238.706426 52.933053 238.706426 -0.000000 0.000000 1.000000 1.000000 1.000000
215 1 182.567885 68.656499 182.567885 68.656499 -0.000000 0.000000 1.000000 1.000000 1.000000
216 1 24.757817 73.272933 24.757817 73.272933 0.000000 -0.000000 1.000000 1.000000 1.000000
217 1 132.862572 50.355087 132.862572 50.355087 -0.000000 0.000000 1.000000 1.000000 1.000000
218 1 0.501276 239.023232 0.501276 239.023232 -0.000000 0.000000 1.000000 1.000000 1.000000
219 1 176.653096 69.733185 176.653096 69.733185 -0.000000 0.000000 1.000000 1.000000 1.000000
220 1 142.253698 177.229512 142.253698 177.229512 0.000000 -0.000000 1.000000 1.000000 1.000000
221 1 249.004630 5.842252 249.004630 5.842252 0.000000 -0.000000 1.000000 1.000000 1.000000
222 1 59.921409 22.858117 59.921409 22.858117 0.000000 0.000000 1.000000 1.000000 1.000000
223 1 96.129856 134.760915 96.129856 134.760915 -0.000000 0.000000 1.000000 1.000000 1.000000
224 1 167.909067 22.963833 167.909067 22.963833 0.000000 -0.000000 1.000000 1.000000 1.000000
225 1 195.477991 259.014879 195.477991 259.014879 0.000000 0.000000 1.000000 1.000000 1.000000
226 1 86.512873 12.431534 86.512873 12.431534 -0.000000 0.000000 1.000000 1.000000 1.000000
227 1 252.533864 251.226071 252.533864 251.226071 -0.000000 0.000000 1.000000 1.000000 1.000000
228 1 57.396495 60.774397 57.396495 60.774397 0.000000 0.000000 1.000000 1.000000 1.000000
229 1 227.595265 44.721549 227.595265 44.721549 -0.000000 -0.000000 1.000000 1.000000 1.000000
230 1 47.924048 244.492419 47.924048 244.492419 -0.000000 0.000000 1.000000 1.000000 1.000000
231 1 238.916339 85.955603 238.916339 85.955603 -0.000000 0.000000 1.000000 1.000000 1.000000
232 1 128.992012 243.728030 128.992012 243.728030 0.000000 -0.000000 1.000000 1.000000 1.000000
233 1 151.032697 49.848976 151.032697 49.848976 0.000000 0.000000 1.000000 1.000000 1.000000
234 1 172.458474 152.988815 172.458474 152.988815 0.000000 0.000000 1.000000 1.000000 1.000000
235 1 228.239496 187.271067 228.239496 187.271067 -0.000000 0.000000 1.000000 1.000000 1.000000
236 1 22.464942 196.006776 22.464942 196.006776 -0.000000 0.000000 1.000000 1.000000 1.000000
237 1 119.075857 134.706644 119.075857 134.706644 -0.000000 0.000000 1.000000 1.000000 1.000000
238 1 181.475315 192.778527 181.475315 192.778527 -0.000000 -0.000000 1.000000 1.000000 1.000000
239 1 238.203282 31.273038 238.203282 31.273038 -0.000000 -0.000000 1.000000 1.000000 1.000000
240 1 152.406328 207.837633 152.406328 207.837633 0.000000 0.000000 1.000000 1.000000 1.000000
241 1 89.296422 62.781782 89.296422 62.781782 0.000000 -0.000000 1.000000 1.000000 1.000000
242 1 180.449044 38.111438 180.449044 38.111438 -0.000000 -0.000000 1.000000 1.000000 1.000000
243 1 248.896512 200.101508 248.896512 200.101508 0.000000 0.000000 1.000000 1.000000 1.000000
244 1 116.664439 24.030535 116.664439 24.030535 -0.000000 -0.000000 1.000000 1.000000 1.000000
245 1 271.463315 117.888701 -7.730655 117.888701 0.000000 0.000000 1.000000 1.000000 1.000000
246 1 34.882171 249.636616 34.882171 249.636616 0.000000 0.000000 1.000000 1.000000 1.000000
247 1 174.114754 240.235156 174.114754 240.235156 0.000000 0.000000 1.000000 1.000000 1.000000
248 1 194.383361 243.070112 194.383361 243.070112 0.000000 0.000000 1.000000 1.000000 1.000000
249 1 178.185121 10.038544 178.185121 10.038544 -0.000000 0.000000 1.000000 1.000000 1.000000
250 1 234.225663 33.720411 234.225663 33.720411 -0.000000 0.000000 1.000000 1.000000 1.000000
251 1 269.709058 116.048527 269.709058 116.048527 0.000000 -0.000000 1.000000 1.000000 1.000000
252 1 34.203484 271.079096 34.203484 271.079096 -0.000000 -0.000000 1.000000 1.000000 1.000000
253 1 82.185277 265.706940 82.185277 265.706940 -0.000000 0.000000 1.000000 1.000000 1.000000
254 1 246.390555 268.768483 246.390555 268.768483 -0.000000 -0.000000 1.000000 1.000000 1.000000
255 1 82.974518 81.324165 82.974518 81.324165 0.000000 -0.000000 1.000000 1.000000 1.000000
256 1 264.816345 73.316261 264.816345 73.316261 -0.000000 0.000000 1.000000 1.000000 1.000000
257 1 55.935737 215.785809 55.935737 215.785809 -0.000000 -0.000000 1.000000 1.000000 1.000000
258 1 141.541476 213.629254 141.541476 213.629254 -0.000000 0.000000 1.000000 1.000000 1.000000
259 1 114.841719 43.291547 114.841719 43.291547 -0.000000 -0.000000 1.000000 1.000000 1.000000
260 1 244.974144 225.349780 244.974144 225.349780 0.000000 -0.000000 1.000000 1.000000 1.000000
261 1 237.310954 52.128963 237.310954 52.128963 -0.000000 0.000000 1.000000 1.000000 1.000000
262 1 215.673545 204.566475 215.673545 204.566475 0.000000 0.000000 1.000000 1.000000 1.000000
263 1 45.826752 212.839312 45.826752 212.839312 0.000000 0.000000 1.000000 1.000000 1.000000
264 1 216.894664 162.478662 216.894664 162.478662 0.000000 -0.000000 1.000000 1.000000 1.000000
265 1 185.734407 216.430877 185.734407 216.430877 -0.000000 0.000000 1.000000 1.000000 1.000000
266 1 91.265793 47.679969 91.265793 47.679969 -0.000000 0.000000 1.000000 1.000000 1.000000
267 1 243.977335 256.252324 243.977335 256.252324 0.000000 -0.000000 1.000000 1.000000 1.000000
268 1 125.345062 161.705646 125.345062 161.705646 -0.000000 -0.000000 1.000000 1.000000 1.000000
269 1 211.602516 69.335832 211.602516 69.335832 0.000000 0.000000 1.000000 1.000000 1.000000
270 1 256.571330 120.948167 256.571330 120.948167 0.000000 -0.000000 1.000000 1.000000 1.000000
271 1 112.716162 121.538464 112.716162 121.538464 -0.000000 0.000000 1.000000 1.000000 1.000000
272 1 99.342946 242.713432 99.342946 242.713432 0.000000 -0.000000 1.000000 1.000000 1.000000
273 1 271.746654 169.906636 271.746654 169.906636 0.000000 -0.000000 1.000000 1.000000 1.000000
274 1 230.624875 263.969659 230.624875 263.969659 -0.000000 -0.000000 1.000000 1.000000 1.000000
275 1 96.842604 34.548364 96.842604 34.548364 -0.000000 -0.000000 1.000000 1.000000 1.000000
276 1 271.558558 95.836280 271.558558 95.836280 0.000000 0.000000 1.000000 1.000000 1.000000
277 1 87.969650 152.303349 87.969650 152.303349 0.000000 0.000000 1.000000 1.000000 1.000000
278 1 149.148114 53.731142 149.148114 53.731142 0.000000 -0.000000 1.000000 1.000000 1.000000
279 1 263.157892 26.027332 263.157892 26.027332 0.000000 -0.000000 1.000000 1.000000 1.000000
280 1 113.706343 149.773512 113.706343 149.773512 -0.000000 -0.000000 1.000000 1.000000 1.000000
281 1 134.664739 202.324327 134.664739 202.324327 -0.000000 0.000000 1.000000 1.000000 1.000000
282 1 267.193389 142.011712 267.193389 142.011712 0.000000 0.000000 1.000000 1.000000 1.000000
283 1 109.499917 154.983491 109.499917 154.983491 -0.000000 -0.000000 1.000000 1.000000 1.000000
284 1 237.745011 244.791515 237.745011 244.791515 -0.000000 -0.000000 1.000000 1.000000 1.000000
285 1 216.643894 42.758984 216.643894 42.758984 0.000000 0.000000 1.000000 1.000000 1.000000
286 1 264.331965 50.573954 264.331965 50.573954 0.000000 0.000000 1.000000 1.000000 1.000000
287 1 26.029367 239.061890 26.029367 239.061890 -0.000000 0.000000 1.000000 1.000000 1.000000
288 1 30.361417 38.271178 30.361417 38.271178 0.000000 -0.000000 1.000000 1.000000 1.000000
289 1 0.147534 174.737899 279.341504 174.737899 0.000000 0.000000 1.000000 1.000000 1.000000
290 1 227.972631 42.018180 227.972631 42.018180 0.000000 -0.000000 1.000000 1.000000 1.000000
291 1 131.290786 197.535211 131.290786 197.535211 0.000000 0.000000 1.000000 1.000000 1.000000
292 1 246.796699 55.170907 246.796699 55.170907 -0.000000 0.000000 1.000000 1.000000 1.000000
293 1 235.040172 94.194101 235.040172 94.194101 0.000000 0.000000 1.000000 1.000000 1.000000
294 1 24.175919 123.831863 24.175919 123.831863 0.000000 0.000000 1.000000 1.000000 1.000000
295 1 54.576516 130.361475 54.576516 130.361475 0.000000 -0.000000 1.000000 1.000000 1.000000
296 1 110.750644 79.360991 110.750644 79.360991 -0.000000 -0.000000 1.000000 1.000000 1.000000
297 1 153.986985 243.048750 153.986985 243.048750 -0.000000 0.000000 1.000000 1.000000 1.000000
298 1 45.282786 157.852357 45.282786 157.852357 -0.000000 -0.000000 1.000000 1.000000 1.000000
299 1 164.732473 147.399354 164.732473 147.399354 0.000000 0.000000 1.000000 1.000000 1.000000
300 1 202.076014 88.930514 202.076014 88.930514 0.000000 -0.000000 1.000000 1.000000 1.000000
301 1 243.702407 72.106749 243.702407 72.106749 0.000000 -0.000000 1.000000 1.000000 1.000000
302 1 176.067887 87.645943 176.067887 87.645943 0.000000 -0.000000 1.000000 1.000000 1.000000
303 1 230.913264 169.766549 230.913264 169.766549 -0.000000 0.000000 1.000000 1.000000 1.000000
304 1 227.203996 14.291170 227.203996 14.291170 0.000000 -0.000000 1.000000 1.000000 1.000000
305 1 202.556172 234.233857 202.556172 234.233857 -0.000000 -0.000000 1.000000 1.000000 1.000000
306 1 270.955344 61.859457 -8.238626 61.859457 -0.000000 0.000000 1.000000 1.000000 1.000000
307 1 9.554348 278.498459 9.554348 -0.695511 0.000000 0.000000 1.000000 1.000000 1.000000
308 1 191.649061 218.102583 191.649061 218.102583 -0.000000 -0.000000 1.000000 1.000000 1.000000
309 1 103.352997 227.048134 103.352997 227.048134 0.000000 -0.000000 1.000000 1.000000 1.000000
310 1 107.565896 134.198918 107.565896 134.198918 -0.000000 -0.000000 1.000000 1.000000 1.000000
311 1 30.266656 250.748422 30.266656 250.748422 0.000000 0.000000 1.000000 1.000000 1.000000
312 1 201.640713 272.469503 201.640713 -6.724467 -0.000000 -0.000000 1.000000 1.000000 1.000000
313 1 135.400142 177.523645 135.400142 177.523645 -0.000000 0.000000 1.000000 1.000000 1.000000
314 1 226.034859 70.025499 226.034859 70.025499 0.000000 0.000000 1.000000 1.000000 1.000000
315 1 199.737070 79.255425 199.737070 79.255425 -0.000000 0.000000 1.000000 1.000000 1.000000