ITEM: TIMESTEP
1000.000000
ITEM: NUMBER OF ATOMS
5000
ITEM: BOX BOUNDS xy xz yz
0 275.087957 0
0 275.087957 0
0 2 0
ITEM: ATOMS id type x y xu yu vx vy radius m z
0 1 143.511434 232.935216 143.511434 232.935216 -0.000000 0.000000 1.000000 1.000000 1.000000
1 1 255.028408 195.054992 255.028408 195.054992 0.000000 0.000000 1.000000 1.000000 1.000000
2 1 122.925175 23.726841 122.925175 23.726841 0.000000 -0.000000 1.000000 1.000000 1.000000
3 1 61.767979 204.314366 61.767979 204.314366 0.000000 -0.000000 1.000000 1.000000 1.000000
4 1 80.222702 244.186923 80.222702 244.186923 0.000000 -0.000000 1.000000 1.000000 1.000000
5 1 115.894093 206.365117 115.894093 206.365117 -0.000000 -0.000000 1.000000 1.000000 1.000000
6 1 21.715595 252.243736 21.715595 252.243736 -0.000000 0.000000 1.000000 1.000000 1.000000
7 1 21.776228 136.429220 21.776228 136.429220 0.000000 0.000000 1.000000 1.000000 1.000000
8 1 102.173984 189.595741 102.173984 189.595741 -0.000000 0.000000 1.000000 1.000000 1.000000
9 1 259.821830 121.647127 259.821830 121.647127 -0.000000 0.000000 1.000000 1.000000 1.000000
10 1 113.071110 110.178086 113.071110 110.178086 0.000000 -0.000000 1.000000 1.000000 1.000000
11 1 259.031041 131.089631 259.031041 131.089631 -0.000000 0.000000 1.000000 1.000000 1.000000
12 1 189.079468 22.945036 189.079468 22.945036 -0.000000 -0.000000 1.000000 1.000000 1.000000
13 1 38.857851 93.998006 38.857851 93.998006 0.000000 0.000000 1.000000 1.000000 1.000000
14 1 39.667982 266.547497 39.667982 -8.540460 0.000000 -0.000000 1.000000 1.000000 1.000000
15 1 221.246039 5.608170 221.246039 5.608170 0.000000 0.000000 1.000000 1.000000 1.000000
16 1 100.285506 24.312715 100.285506 24.312715 0.000000 0.000000 1.000000 1.000000 1.000000
17 1 128.402796 237.917850 128.402796 237.917850 0.000000 -0.000000 1.000000 1.000000 1.000000
18 1 160.856972 39.959896 160.856972 39.959896 0.000000 0.000000 1.000000 1.000000 1.000000
19 1 37.015260 174.646587 37.015260 174.646587 -0.000000 -0.000000 1.000000 1.000000 1.000000
20 1 43.848402 216.317512 43.848402 216.317512 -0.000000 0.000000 1.000000 1.000000 1.000000
21 1 163.805874 142.684953 163.805874 142.684953 -0.000000 0.000000 1.000000 1.000000 1.000000
22 1 119.248989 268.012385 119.248989 -7.075572 -0.000000 -0.000000 1.000000 1.000000 1.000000
23 1 225.899521 30.358489 225.899521 30.358489 -0.000000 -0.000000 1.000000 1.000000 1.000000
24 1 55.721023 86.472263 55.721023 86.472263 -0.000000 -0.000000 1.000000 1.000000 1.000000
25 1 174.339329 58.150188 174.339329 58.150188 0.000000 0.000000 1.000000 1.000000 1.000000
26 1 70.967751 82.435803 70.967751 82.435803 -0.000000 0.000000 1.000000 1.000000 1.000000
27 1 22.766240 189.224901 22.766240 189.224901 0.000000 0.000000 1.000000 1.000000 1.000000
28 1 43.217880 125.099862 43.217880 125.099862 0.000000 0.000000 1.000000 1.000000 1.000000
29 1 221.552937 252.085292 221.552937 252.085292 -0.000000 0.000000 1.000000 1.000000 1.000000
30 1 184.741275 83.159697 184.741275 83.159697 -0.000000 0.000000 1.000000 1.000000 1.000000
31 1 2.191570 58.608188 277.279527 58.608188 -0.000000 0.000000 1.000000 1.000000 1.000000
32 1 130.032565 267.116309 130.032565 267.116309 -0.000000 -0.000000 1.000000 1.000000 1.000000
33 1 243.363525 109.108546 243.363525 109.108546 0.000000 -0.000000 1.000000 1.000000 1.000000
34 1 62.793736 251.858083 62.793736 251.858083 0.000000 0.000000 1.000000 1.000000 1.000000
35 1 81.213933 150.965469 81.213933 150.965469 -0.000000 0.000000 1.000000 1.000000 1.000000
36 1 50.261200 82.700396 50.261200 82.700396 -0.000000 0.000000 1.000000 1.000000 1.000000
37 1 45.726385 181.622077 45.726385 181.622077 -0.000000 0.000000 1.000000 1.000000 1.000000
38 1 90.294675 127.688108 90.294675 127.688108 -0.000000 -0.000000 1.000000 1.000000 1.000000
39 1 262.428187 20.269796 262.428187 20.269796 -0.000000 -0.000000 1.000000 1.000000 1.000000
40 1 268.460217 154.645107 -6.627740 154.645107 0.000000 0.000000 1.000000 1.000000 1.000000
41 1 94.226535 153.457061 94.226535 153.457061 -0.000000 0.000000 1.000000 1.000000 1.000000
42 1 218.053148 209.770132 218.053148 209.770132 0.000000 0.000000 1.000000 1.000000 1.000000
43 1 256.256252 204.758686 256.256252 204.758686 -0.000000 0.000000 1.000000 1.000000 1.000000
44 1 98.961845 231.557337 98.961845 231.557337 0.000000 0.000000 1.000000 1.000000 1.000000
45 1 21.343212 269.931753 21.343212 269.931753 -0.000000 -0.000000 1.000000 1.000000 1.000000
46 1 153.448588 109.164019 153.448588 109.164019 0.000000 -0.000000 1.000000 1.000000 1.000000
47 1 209.453622 154.347966 209.453622 154.347966 0.000000 0.000000 1.000000 1.000000 1.000000
48 1 166.355033 121.498762 166.355033 121.498762 0.000000 0.000000 1.000000 1.000000 1.000000
49 1 11.996610 66.443576 11.996610 66.443576 -0.000000 0.000000 1.000000 1.000000 1.000000
50 1 156.263540 64.640795 156.263540 64.640795 0.000000 -0.000000 1.000000 1.000000 1.000000
51 1 222.675551 231.818396 222.675551 231.818396 -0.000000 -0.000000 1.000000 1.000000 1.000000
52 1 106.561494 247.903206 106.561494 247.903206 -0.000000 -0.000000 1.000000 1.000000 1.000000
53 1 246.077482 168.138588 246.077482 168.138588 0.000000 -0.000000 1.000000 1.000000 1.000000
54 1 247.985844 243.676691 247.985844 243.676691 -0.000000 0.000000 1.000000 1.000000 1.000000
55 1 36.531088 214.540782 36.531088 214.540782 0.000000 -0.000000 1.000000 1.000000 1.000000
56 1 230.407271 7.014792 230.407271 7.014792 0.000000 0.000000 1.000000 1.000000 1.000000
57 1 72.185600 227.481271 72.185600 227.481271 0.000000 0.000000 1.000000 1.000000 1.000000
58 1 176.403125 244.264828 176.403125 244.264828 0.000000 -0.000000 1.000000 1.000000 1.000000
59 1 23.954974 24.341773 23.954974 24.341773 0.000000 0.000000 1.000000 1.000000 1.000000
60 1 42.119581 156.122058 42.119581 156.122058 -0.000000 -0.000000 1.000000 1.000000 1.000000
61 1 124.954256 164.157230 124.954256 164.157230 -0.000000 -0.000000 1.000000 1.000000 1.000000
62 1 57.522378 253.711727 57.522378 253.711727 0.000000 0.000000 1.000000 1.000000 1.000000
63 1 24.954822 155.212515 24.954822 155.212515 0.000000 -0.000000 1.000000 1.000000 1.000000
64 1 234.708251 193.335659 234.708251 193.335659 0.000000 0.000000 1.000000 1.000000 1.000000
65 1 95.318380 217.603760 95.318380 217.603760 0.000000 0.000000 1.000000 1.000000 1.000000
66 1 70.267812 144.324986 70.267812 144.324986 0.000000 -0.000000 1.000000 1.000000 1.000000
67 1 272.090013 68.561455 -2.997944 68.561455 -0.000000 0.000000 1.000000 1.000000 1.000000
68 1 96.519406 6.166486 96.519406 6.166486 0.000000 0.000000 1.000000 1.000000 1.000000
69 1 77.748388 64.636184 77.748388 64.636184 -0.000000 -0.000000 1.000000 1.000000 1.000000
70 1 231.148062 170.920010 231.148062 170.920010 0.000000 0.000000 1.000000 1.000000 1.000000
71 1 42.595107 97.863973 42.595107 97.863973 -0.000000 -0.000000 1.000000 1.000000 1.000000
72 1 100.147096 218.971154 100.147096 218.971154 0.000000 0.000000 1.000000 1.000000 1.000000
73 1 53.828722 168.204639 53.828722 168.204639 0.000000 -0.000000 1.000000 1.000000 1.000000
74 1 158.637871 254.581730 158.637871 254.581730 -0.000000 0.000000 1.000000 1.000000 1.000000
75 1 154.174341 154.618700 154.174341 154.618700 0.000000 -0.000000 1.000000 1.000000 1.000000
76 1 92.750019 249.363050 92.750019 249.363050 0.000000 -0.000000 1.000000 1.000000 1.000000
77 1 242.518945 52.954427 242.518945 52.954427 0.000000 -0.000000 1.000000 1.000000 1.000000
78 1 210.729082 123.476024 210.729082 123.476024 -0.000000 -0.000000 1.000000 1.000000 1.000000
79 1 131.389328 105.398887 131.389328 105.398887 0.000000 -0.000000 1.000000 1.000000 1.000000
80 1 188.214864 260.939918 188.214864 260.939918 -0.000000 0.000000 1.000000 1.000000 1.000000
81 1 30.945438 179.768705 30.945438 179.768705 -0.000000 0.000000 1.000000 1.000000 1.000000
82 1 84.364130 95.491245 84.364130 95.491245 0.000000 -0.000000 1.000000 1.000000 1.000000
83 1 112.232285 231.541999 112.232285 231.541999 -0.000000 -0.000000 1.000000 1.000000 1.000000
84 1 13.705473 103.935505 13.705473 103.935505 0.000000 -0.000000 1.000000 1.000000 1.000000
85 1 118.014695 124.267123 118.014695 124.267123 0.000000 0.000000 1.000000 1.000000 1.000000
86 1 105.627038 14.283812 105.627038 14.283812 0.000000 0.000000 1.000000 1.000000 1.000000
87 1 49.921021 242.153965 49.921021 242.153965 0.000000 -0.000000 1.000000 1.000000 1.000000
88 1 4.227214 153.633486 4.227214 153.633486 0.000000 0.000000 1.000000 1.000000 1.000000
89 1 57.667587 268.468165 57.667587 268.468165 -0.000000 0.000000 1.000000 1.000000 1.000000
90 1 19.991123 180.429629 19.991123 180.429629 0.000000 0.000000 1.000000 1.000000 1.000000
91 1 274.797819 252.317308 -0.290138 252.317308 -0.000000 0.000000 1.000000 1.000000 1.000000
92 1 175.921110 71.709895 175.921110 71.709895 -0.000000 -0.000000 1.000000 1.000000 1.000000
93 1 18.720612 249.435340 18.720612 249.435340 -0.000000 0.000000 1.000000 1.000000 1.000000
94 1 12.453982 99.279823 12.453982 99.279823 0.000000 -0.000000 1.000000 1.000000 1.000000
95 1 46.272386 91.314846 46.272386 91.314846 -0.000000 -0.000000 1.000000 1.000000 1.000000
96 1 259.273298 164.628679 259.273298 164.628679 -0.000000 0.000000 1.000000 1.000000 1.000000
97 1 63.780766 38.687746 63.780766 38.687746 -0.000000 0.000000 1.000000 1.000000 1.000000
98 1 202.114453 86.968282 202.114453 86.968282 0.000000 0.000000 1.000000 1.000000 1.000000
99 1 184.059269 183.704610 184.059269 183.704610 0.000000 0.000000 1.000000 1.000000 1.000000
100 1 119.176411 82.627792 119.176411 82.627792 0.000000 -0.000000 1.000000 1.000000 1.000000
101 1 171.677970 135.867316 171.677970 135.867316 -0.000000 -0.000000 1.000000 1.000000 1.000000
102 1 192.548624 24.848987 192.548624 24.848987 0.000000 0.000000 1.000000 1.000000 1.000000
103 1 172.531825 148.051127 172.531825 148.051127 0.000000 -0.000000 1.000000 1.000000 1.000000
104 1 154.439298 227.842722 154.439298 227.842722 -0.000000 -0.000000 1.000000 1.000000 1.000000
105 1 248.572312 120.579639 248.572312 120.579639 -0.000000 0.000000 1.000000 1.000000 1.000000
106 1 247.052587 97.654595 247.052587 97.654595 0.000000 -0.000000 1.000000 1.000000 1.000000
107 1 48.152219 269.214459 48.152219 -5.873498 -0.000000 0.000000 1.000000 1.000000 1.000000
108 1 71.245496 58.174500 71.245496 58.174500 0.000000 -0.000000 1.000000 1.000000 1.000000
109 1 201.409228 74.882316 201.409228 74.882316 -0.000000 0.000000 1.000000 1.000000 1.000000
110 1 178.923631 102.189057 178.923631 102.189057 0.000000 0.000000 1.000000 1.000000 1.000000
111 1 156.513371 85.088398 156.513371 85.088398 0.000000 0.000000 1.000000 1.000000 1.000000
112 1 259.868246 192.407498 259.868246 192.407498 -0.000000 0.000000 1.000000 1.000000 1.000000
113 1 66.562368 206.196809 66.562368 206.196809 0.000000 0.000000 1.000000 1.000000 1.000000
114 1 265.196568 172.094917 265.196568 172.094917 0.000000 0.000000 1.000000 1.000000 1.000000
115 1 261.643821 110.584991 261.643821 110.584991 -0.000000 -0.000000 1.000000 1.000000 1.000000
116 1 177.738578 158.520249 177.738578 158.520249 -0.000000 -0.000000 1.000000 1.000000 1.000000
117 1 72.851662 149.113028 72.851662 149.113028 0.000000 -0.000000 1.000000 1.000000 1.000000
118 1 249.867299 92.492150 249.867299 92.492150 -0.000000 -0.000000 1.000000 1.000000 1.000000
119 1 165.821246 180.967955 165.821246 180.967955 -0.000000 -0.000000 1.000000 1.000000 1.000000
120 1 207.473828 252.689335 207.473828 252.689335 -0.000000 0.000000 1.000000 1.000000 1.000000
121 1 59.212982 37.573843 59.212982 37.573843 -0.000000 0.000000 1.000000 1.000000 1.000000
122 1 187.838427 128.364561 187.838427 128.364561 0.000000 -0.000000 1.000000 1.000000 1.000000
123 1 229.781362 213.516641 229.781362 213.516641 0.000000 0.000000 1.000000 1.000000 1.000000
124 1 13.353310 154.684124 13.353310 154.684124 0.000000 0.000000 1.000000 1.000000 1.000000
125 1 152.439008 15.470683 152.439008 15.470683 0.000000 0.000000 1.000000 1.000000 1.000000
126 1 216.428185 20.391631 216.428185 20.391631 0.000000 0.000000 1.000000 1.000000 1.000000
127 1 228.372301 218.077003 228.372301 218.077003 -0.000000 0.000000 1.000000 1.000000 1.000000
128 1 178.112097 113.683799 178.112097 113.683799 0.000000 0.000000 1.000000 1.000000 1.000000
129 1 132.213474 148.369911 132.213474 148.369911 -0.000000 -0.000000 1.000000 1.000000 1.000000
130 1 232.294932 64.155368 232.294932 64.155368 0.000000 -0.000000 1.000000 1.000000 1.000000
131 1 104.080378 65.291417 104.080378 65.291417 -0.000000 0.000000 1.000000 1.000000 1.000000
132 1 208.439518 266.543251 208.439518 266.543251 0.000000 0.000000 1.000000 1.000000 1.000000
133 1 258.667735 158.447005 258.667735 158.447005 -0.000000 -0.000000 1.000000 1.000000 1.000000
134 1 104.589766 251.110898 104.589766 251.110898 0.000000 0.000000 1.000000 1.000000 1.000000
135 1 257.594563 60.314728 257.594563 60.314728 -0.000000 -0.000000 1.000000 1.000000 1.000000
136 1 122.911242 132.629147 122.911242 132.629147 -0.000000 -0.000000 1.000000 1.000000 1.000000
137 1 78.148681 247.054496 78.148681 247.054496 -0.000000 0.000000 1.000000 1.000000 1.000000
138 1 247.726711 155.199946 247.726711 155.199946 0.000000 -0.000000 1.000000 1.000000 1.000000
139 1 37.302990 264.454885 37.302990 264.454885 -0.000000 0.000000 1.000000 1.000000 1.000000
140 1 179.128040 129.193538 179.128040 129.193538 -0.000000 -0.000000 1.000000 1.000000 1.000000
141 1 189.511674 206.889329 189.511674 206.889329 0.000000 0.000000 1.000000 1.000000 1.000000
142 1 113.451625 91.237646 113.451625 91.237646 0.000000 -0.000000 1.000000 1.000000 1.000000
143 1 199.302336 57.994719 199.302336 57.994719 0.000000 -0.000000 1.000000 1.000000 1.000000
144 1 99.871243 17.585869 99.871243 17.585869 0.000000 0.000000 1.000000 1.000000 1.000000
145 1 197.176734 67.363367 197.176734 67.363367 -0.000000 -0.000000 1.000000 1.000000 1.000000
146 1 184.328078 167.568872 184.328078 167.568872 0.000000 0.000000 1.000000 1.000000 1.000000
147 1 174.059884 270.158806 174.059884 270.158806 0.000000 0.000000 1.000000 1.000000 1.000000
148 1 58.666082 98.070814 58.666082 98.070814 -0.000000 -0.000000 1.000000 1.000000 1.000000
149 1 5.355813 80.264718 5.355813 80.264718 -0.000000 0.000000 1.000000 1.000000 1.000000
150 1 7.729941 239.352427 7.729941 239.352427 -0.000000 0.000000 1.000000 1.000000 1.000000
151 1 121.968333 70.871334 121.968333 70.871334 -0.000000 0.000000 1.000000 1.000000 1.000000
152 1 225.944562 101.831169 225.944562 101.831169 0.000000 -0.000000 1.000000 1.000000 1.000000
153 1 150.272231 236.461315 150.272231 236.461315 -0.000000 -0.000000 1.000000 1.000000 1.000000
154 1 180.873766 193.666572 180.873766 193.666572 0.000000 -0.000000 1.000000 1.000000 1.000000
155 1 149.860084 220.326386 149.860084 220.326386 -0.000000 0.000000 1.000000 1.000000 1.000000
156 1 249.292239 150.693922 249.292239 150.693922 -0.000000 0.000000 1.000000 1.000000 1.000000
157 1 63.756472 122.137864 63.756472 122.137864 -0.000000 0.000000 1.000000 1.000000 1.000000
158 1 264.033965 188.068045 264.033965 188.068045 -0.000000 0.000000 1.000000 1.000000 1.000000
159 1 194.534401 248.104972 194.534401 248.104972 0.000000 -0.000000 1.000000 1.000000 1.000000
160 1 112.657200 160.561530 112.657200 160.561530 0.000000 0.000000 1.000000 1.000000 1.000000
161 1 17.739821 168.257146 17.739821 168.257146 0.000000 -0.000000 1.000000 1.000000 1.000000
162 1 261.316429 190.812125 261.316429 190.812125 0.000000 -0.000000 1.000000 1.000000 1.000000
163 1 91.721971 44.147759 91.721971 44.147759 -0.000000 -0.000000 1.000000 1.000000 1.000000
164 1 134.068236 203.165256 134.068236 203.165256 0.000000 0.000000 1.000000 1.000000 1.000000
165 1 28.112521 171.194629 28.112521 171.194629 -0.000000 0.000000 1.000000 1.000000 1.000000
166 1 127.344005 246.672625 127.344005 246.672625 -0.000000 -0.000000 1.000000 1.000000 1.000000
167 1 73.449836 122.488441 73.449836 122.488441 -0.000000 -0.000000 1.000000 1.000000 1.000000
168 1 10.940515 12.889086 10.940515 12.889086 0.000000 -0.000000 1.000000 1.000000 1.000000
169 1 122.921663 259.623829 122.921663 259.623829 -0.000000 -0.000000 1.000000 1.000000 1.000000
170 1 95.482990 53.297362 95.482990 53.297362 0.000000 0.000000 1.000000 1.000000 1.000000
171 1 72.948834 54.024307 72.948834 54.024307 0.000000 -0.000000 1.000000 1.000000 1.000000
172 1 108.244677 121.802599 108.244677 121.802599 -0.000000 -0.000000 1.000000 1.000000 1.000000
173 1 48.159861 235.443795 48.159861 235.443795 0.000000 0.000000 1.000000 1.000000 1.000000
174 1 54.366556 148.956079 54.366556 148.956079 -0.000000 0.000000 1.000000 1.000000 1.000000
175 1 33.919970 79.803655 33.919970 79.803655 -0.000000 -0.000000 1.000000 1.000000 1.000000
176 1 95.273463 275.049841 95.273463 -0.038116 -0.000000 0.000000 1.000000 1.000000 1.000000
177 1 5.613777 82.934225 5.613777 82.934225 -0.000000 -0.000000 1.000000 1.000000 1.000000
178 1 83.485038 132.858578 83.485038 132.858578 -0.000000 0.000000 1.000000 1.000000 1.000000
179 1 166.330892 215.776388 166.330892 215.776388 -0.000000 0.000000 1.000000 1.000000 1.000000
180 1 257.113210 114.175621 257.113210 114.175621 0.000000 -0.000000 1.000000 1.000000 1.000000
181 1 191.343425 246.424978 191.343425 246.424978 0.000000 -0.000000 1.000000 1.000000 1.000000
182 1 148.239890 94.273552 148.239890 94.273552 -0.000000 -0.000000 1.000000 1.000000 1.000000
183 1 272.052700 134.907175 272.052700 134.907175 -0.000000 0.000000 1.000000 1.000000 1.000000
184 1 114.833244 113.462605 114.833244 113.462605 -0.000000 -0.000000 1.000000 1.000000 1.000000
185 1 187.312432 2.855711 187.312432 277.943668 -0.000000 0.000000 1.000000 1.000000 1.000000
186 1 9.458701 139.534020 9.458701 139.534020 0.000000 -0.000000 1.000000 1.000000 1.000000
187 1 138.946274 55.405204 138.946274 55.405204 -0.000000 0.000000 1.000000 1.000000 1.000000
188 1 88.534087 160.375076 88.534087 160.375076 -0.000000 -0.000000 1.000000 1.000000 1.000000
189 1 11.483717 74.240399 11.483717 74.240399 -0.000000 -0.000000 1.000000 1.000000 1.000000
190 1 63.986417 158.168583 63.986417 158.168583 0.000000 0.000000 1.000000 1.000000 1.000000
191 1 41.212824 7.940703 41.212824 7.940703 0.000000 -0.000000 1.000000 1.000000 1.000000
192 1 176.932407 75.393659 176.932407 75.393659 -0.000000 -0.000000 1.000000 1.000000 1.000000
193 1 80.837602 264.257478 80.837602 264.257478 0.000000 0.000000 1.000000 1.000000 1.000000
194 1 189.309269 120.981244 189.309269 120.981244 0.000000 0.000000 1.000000 1.000000 1.000000
195 1 187.216797 192.046706 187.216797 192.046706 -0.000000 0.000000 1.000000 1.000000 1.000000
196 1 211.423545 261.525368 211.423545 261.525368 0.000000 -0.000000 1.000000 1.000000 1.000000
197 1 244.613951 170.173427 244.613951 170.173427 -0.000000 -0.000000 1.000000 1.000000 1.000000
198 1 162.186526 146.451682 162.186526 146.451682 0.000000 0.000000 1.000000 1.000000 1.000000
199 1 155.161138 157.729679 155.161138 157.729679 -0.000000 -0.000000 1.000000 1.000000 1.000000
200 1 5.095412 14.894819 5.095412 14.894819 0.000000 -0.000000 1.000000 1.000000 1.000000
201 1 274.640771 229.374630 274.640771 229.374630 0.000000 -0.000000 1.000000 1.000000 1.000000
202 1 123.430295 11.376469 123.430295 11.376469 -0.000000 0.000000 1.000000 1.000000 1.000000
203 1 111.144053 5.375415 111.144053 5.375415 -0.000000 -0.000000 1.000000 1.000000 1.000000
204 1 124.420460 187.516844 124.420460 187.516844 -0.000000 0.000000 1.000000 1.000000 1.000000
205 1 149.345293 6.330060 149.345293 6.330060 0.000000 -0.000000 1.000000 1.000000 1.000000
206 1 129.137063 68.634010 129.137063 68.634010 0.000000 0.000000 1.000000 1.000000 1.000000
207 1 28.582046 129.675995 28.582046 129.675995 -0.000000 -0.000000 1.000000 1.000000 1.000000
208 1 99.563431 68.985572 99.563431 68.985572 -0.000000 0.000000 1.000000 1.000000 1.000000
209 1 96.078557 84.031366 96.078557 84.031366 0.000000 -0.000000 1.000000 1.000000 1.000000
210 1 262.072539 157.827185 262.072539 157.827185 -0.000000 0.000000 1.000000 1.000000 1.000000
211 1 111.667905 241.017934 111.667905 241.017934 -0.000000 -0.000000 1.000000 1.000000 1.000000
212 1 36.876019 108.814466 36.876019 108.814466 -0.000000 -0.000000 1.000000 1.000000 1.000000
213 1 181.889313 77.936182 181.889313 77.936182 -0.000000 -0.000000 1.000000 1.000000 1.000000
214 1 35.893348 166.715463 35.893348 166.715463 0.000000 0.000000 1.000000 1.000000 1.000000
215 1 25.735481 164.082756 25.735481 164.082756 -0.000000 0.000000 1.000000 1.000000 1.000000
216 1 268.068416 173.046133 268.068416 173.046133 -0.000000 -0.000000 1.000000 1.000000 1.000000
217 1 9.661516 230.951006 9.661516 230.951006 0.000000 0.000000 1.000000 1.000000 1.000000
218 1 228.371595 272.298115 228.371595 272.298115 -0.000000 0.000000 1.000000 1.000000 1.000000
219 1 7.923540 215.766214 7.923540 215.766214 0.000000 -0.000000 1.000000 1.000000 1.000000
220 1 204.254930 66.267118 204.254930 66.267118 -0.000000 0.000000 1.000000 1.000000 1.000000
221 1 258.622341 219.174462 258.622341 219.174462 0.000000 -0.000000 1.000000 1.000000 1.000000
222 1 230.809683 77.793257 230.809683 77.793257 0.000000 -0.000000 1.000000 1.000000 1.000000
223 1 60.705291 88.893591 60.705291 88.893591 -0.000000 0.000000 1.000000 1.000000 1.000000
224 1 106.163474 160.097155 106.163474 160.097155 0.000000 0.000000 1.000000 1.000000 1.000000
225 1 152.169771 70.375544 152.169771 70.375544 -0.000000 -0.000000 1.000000 1.000000 1.000000
226 1 76.355743 10.436950 76.355743 10.436950 0.000000 -0.000000 1.000000 1.000000 1.000000
227 1 196.346870 154.203736 196.346870 154.203736 -0.000000 -0.000000 1.000000 1.000000 1.000000
228 1 151.268823 65.032903 151.268823 65.032903 -0.000000 -0.000000 1.000000 1.000000 1.000000
229 1 218.380561 148.216209 218.380561 148.216209 -0.000000 0.000000 1.000000 1.000000 1.000000
230 1 191.602066 43.344234 191.602066 43.344234 -0.000000 0.000000 1.000000 1.000000 1.000000
231 1 89.848597 138.481110 89.848597 138.481110 -0.000000 0.000000 1.000000 1.000000 1.000000
232 1 208.634722 246.388566 208.634722 246.388566 -0.000000 -0.000000 1.000000 1.000000 1.000000
233 1 7.069109 222.634668 282.157066 222.634668 -0.000000 0.000000 1.000000 1.000000 1.000000
234 1 177.058914 133.305026 177.058914 133.305026 0.000000 0.000000 1.000000 1.000000 1.000000
235 1 17.597354 140.392320 17.597354 140.392320 0.000000 -0.000000 1.000000 1.000000 1.000000
236 1 195.575856 16.531978 195.575856 16.531978 0.000000 0.000000 1.000000 1.000000 1.000000
237 1 234.245822 3.782811 234.245822 278.870768 0.000000 0.000000 1.000000 1.000000 1.000000
238 1 176.378585 28.094608 176.378585 28.094608 0.000000 -0.000000 1.000000 1.000000 1.000000
239 1 22.278958 14.523017 22.278958 14.523017 0.000000 0.000000 1.000000 1.000000 1.000000
240 1 244.040204 80.113494 244.040204 80.113494 0.000000 -0.000000 1.000000 1.000000 1.000000
241 1 182.510919 114.058969 182.510919 114.058969 -0.000000 0.000000 1.000000 1.000000 1.000000
242 1 102.726833 216.692557 102.726833 216.692557 0.000000 0.000000 1.000000 1.000000 1.000000
243 1 125.326345 264.334931 125.326345 264.334931 -0.000000 -0.000000 1.000000 1.000000 1.000000
244 1 132.280401 38.992517 132.280401 38.992517 0.000000 -0.000000 1.000000 1.000000 1.000000
245 1 65.320840 245.010217 65.320840 245.010217 -0.000000 0.000000 1.000000 1.000000 1.000000
246 1 17.124075 7.494018 17.124075 282.581975 -0.000000 0.000000 1.000000 1.000000 1.000000
247 1 263.831117 29.587390 263.831117 29.587390 -0.000000 -0.000000 1.000000 1.000000 1.000000
248 1 137.106113 214.396433 137.106113 214.396433 0.000000 -0.000000 1.000000 1.000000 1.000000
249 1 246.899458 211.257715 246.899458 211.257715 0.000000 0.000000 1.000000 1.000000 1.000000
250 1 15.926911 106.667822 15.926911 106.667822 -0.000000 0.000000 1.000000 1.000000 1.000000
251 1 209.586975 204.093385 209.586975 204.093385 -0.000000 -0.000000 1.000000 1.000000 1.000000
252 1 128.952073 13.560209 128.952073 13.560209 0.000000 0.000000 1.000000 1.000000 1.000000
253 1 256.229905 225.346171 256.229905 225.346171 0.000000 0.000000 1.000000 1.000000 1.000000
254 1 178.707945 202.570277 178.707945 202.570277 -0.000000 -0.000000 1.000000 1.000000 1.000000
255 1 267.043412 179.493679 267.043412 179.493679 -0.000000 0.000000 1.000000 1.000000 1.000000
256 1 24.817097 237.473699 24.817097 237.473699 -0.000000 -0.000000 1.000000 1.000000 1.000000
257 1 51.375549 109.438487 51.375549 109.438487 0.000000 -0.000000 1.000000 1.000000 1.000000
258 1 55.195724 144.234396 55.195724 144.234396 0.000000 0.000000 1.000000 1.000000 1.000000
259 1 224.846141 167.881473 224.846141 167.881473 0.000000 0.000000 1.000000 1.000000 1.000000
260 1 186.839652 95.012733 186.839652 95.012733 -0.000000 0.000000 1.000000 1.000000 1.000000
261 1 206.215829 161.454347 206.215829 161.454347 -0.000000 -0.000000 1.000000 1.000000 1.000000
262 1 201.966562 200.596756 201.966562 200.596756 -0.000000 -0.000000 1.000000 1.000000 1.000000
263 1 135.990219 53.909092 135.990219 53.909092 0.000000 -0.000000 1.000000 1.000000 1.000000
264 1 217.558151 26.465093 217.558151 26.465093 -0.000000 -0.000000 1.000000 1.000000 1.000000
265 1 170.967196 120.941046 170.967196 120.941046 -0.000000 0.000000 1.000000 1.000000 1.000000
266 1 178.699200 257.971247 178.699200 257.971247 -0.000000 0.000000 1.000000 1.000000 1.000000
267 1 68.846817 173.175417 68.846817 173.175417 -0.000000 -0.000000 1.000000 1.000000 1.000000
268 1 92.856916 181.135300 92.856916 181.135300 0.000000 -0.000000 1.000000 1.000000 1.000000
269 1 77.439368 106.787517 77.439368 106.787517 0.000000 0.000000 1.000000 1.000000 1.000000
270 1 148.047157 271.668693 148.047157 271.668693 0.000000 -0.000000 1.000000 1.000000 1.000000
271 1 77.035178 251.786037 77.035178 251.786037 0.000000 0.000000 1.000000 1.000000 1.000000
272 1 131.913439 260.961449 131.913439 260.961449 0.000000 0.000000 1.000000 1.000000 1.000000
273 1 170.092848 188.604629 170.092848 188.604629 0.000000 0.000000 1.000000 1.000000 1.000000
274 1 193.532865 122.248142 193.532865 122.248142 0.000000 -0.000000 1.000000 1.000000 1.000000
275 1 179.704406 160.676076 179.704406 160.676076 0.000000 -0.000000 1.000000 1.000000 1.000000
276 1 190.735805 90.152248 190.735805 90.152248 -0.000000 -0.000000 1.000000 1.000000 1.000000
277 1 154.049450 266.642594 154.049450 266.642594 -0.000000 0.000000 1.000000 1.000000 1.000000
278 1 201.838618 148.111786 201.838618 148.111786 0.000000 -0.000000 1.000000 1.000000 1.000000
279 1 8.959493 88.142347 8.959493 88.142347 -0.000000 0.000000 1.000000 1.000000 1.000000
280 1 58.849238 227.968016 58.849238 227.968016 0.000000 0.000000 1.000000 1.000000 1.000000
281 1 186.315877 168.769374 186.315877 168.769374 0.000000 -0.000000 1.000000 1.000000 1.000000
282 1 89.430870 52.179048 89.430870 52.179048 0.000000 0.000000 1.000000 1.000000 1.000000
283 1 80.740989 173.751858 80.740989 173.751858 -0.000000 0.000000 1.000000 1.000000 1.000000
284 1 107.138831 243.280868 107.138831 243.280868 0.000000 0.000000 1.000000 1.000000 1.000000
285 1 34.834183 269.745761 34.834183 269.745761 0.000000 -0.000000 1.000000 1.000000 1.000000
286 1 177.927112 162.911024 177.927112 162.911024 0.000000 -0.000000 1.000000 1.000000 1.000000
287 1 137.117174 84.559814 137.117174 84.559814 0.000000 -0.000000 1.000000 1.000000 1.000000
288 1 41.108402 24.002344 41.108402 24.002344 0.000000 -0.000000 1.000000 1.000000 1.000000
289 1 182.093316 216.355365 182.093316 216.355365 0.000000 0.000000 1.000000 1.000000 1.000000
290 1 71.619883 211.779020 71.619883 211.779020 0.000000 -0.000000 1.000000 1.000000 1.000000
291 1 150.030345 165.711917 150.030345 165.711917 -0.000000 0.000000 1.000000 1.000000 1.000000
292 1 166.124587 131.544446 166.124587 131.544446 0.000000 0.000000 1.000000 1.000000 1.000000
293 1 116.064387 208.642765 116.064387 208.642765 0.000000 0.000000 1.000000 1.000000 1.000000
294 1 65.618701 229.870821 65.618701 229.870821 -0.000000 0.000000 1.000000 1.000000 1.000000
295 1 7.324007 4.868160 7.324007 4.868160 0.000000 0.000000 1.000000 1.000000 1.000000
296 1 172.945645 156.067754 172.945645 156.067754 0.000000 0.000000 1.000000 1.000000 1.000000
297 1 244.337777 147.742457 244.337777 147.742457 -0.000000 0.000000 1.000000 1.000000 1.000000
298 1 15.274997 40.935900 15.274997 40.935900 -0.000000 -0.000000 1.000000 1.000000 1.000000
299 1 99.292483 171.304273 99.292483 171.304273 -0.000000 -0.000000 1.000000 1.000000 1.000000
300 1 102.077868 191.681677 102.077868 191.681677 -0.000000 0.000000 1.000000 1.000000 1.000000
301 1 205.034158 248.627345 205.034158 248.627345 -0.000000 -0.000000 1.000000 1.000000 1.000000
302 1 237.430945 230.612293 237.430945 230.612293 -0.000000 -0.000000 1.000000 1.000000 1.000000
303 1 184.985100 210.012812 184.985100 210.012812 -0.000000 0.000000 1.000000 1.000000 1.000000
304 1 184.709154 96.339633 184.709154 96.339633 -0.000000 0.000000 1.000000 1.000000 1.000000
305 1 263.227508 207.168995 -11.860449 207.168995 -0.000000 -0.000000 1.000000 1.000000 1.000000
306 1 163.987460 226.066990 163.987460 226.066990 -0.000000 0.000000 1.000000 1.000000 1.000000
307 1 210.052838 38.682900 210.052838 38.682900 -0.000000 -0.000000 1.000000 1.000000 1.000000
308 1 99.970513 83.751278 99.970513 83.751278 -0.000000 0.000000 1.000000 1.000000 1.000000
309 1 101.563105 265.344873 101.563105 265.344873 -0.000000 -0.000000 1.000000 1.000000 1.000000
310 1 67.460301 244.731938 67.460301 244.731938 -0.000000 0.000000 1.000000 1.000000 1.000000
311 1 100.838141 57.698049 100.838141 57.698049 -0.000000 -0.000000 1.000000 1.000000 1.000000
312 1 120.082745 190.334058 120.082745 190.334058 -0.000000 0.000000 1.000000 1.000000 1.000000
313 1 143.932328 131.283452 143.932328 131.283452 0.000000 -0.000000 1.000000 1.000000 1.000000
314 1 237.311059 266.575644 237.311059 266.575644 -0.000000 -0.000000 1.000000 1.000000 1.000000
315 1 243.450550 86.906119 243.450550 86.906119 -0.000000 0.000000 1.000000 1.000000 1.000000