ITEM: TIMESTEP
1300.000000
ITEM: NUMBER OF ATOMS
5000
ITEM: BOX BOUNDS xy xz yz
0 246.225971 0
0 246.225971 0
0 2 0
ITEM: ATOMS id type x y xu yu vx vy radius m z
0 1 224.214796 157.102332 224.214796 157.102332 0.000000 -0.000000 1.000000 1.000000 1.000000
1 1 33.112774 79.408201 33.112774 79.408201 0.000000 -0.000000 1.000000 1.000000 1.000000
2 1 182.664064 47.692774 182.664064 47.692774 0.000000 0.000000 1.000000 1.000000 1.000000
3 1 1.950469 21.408404 248.176440 21.408404 0.000000 -0.000000 1.000000 1.000000 1.000000
4 1 74.731356 232.699012 74.731356 232.699012 0.000000 -0.000000 1.000000 1.000000 1.000000
5 1 29.825365 112.958383 29.825365 112.958383 0.000000 -0.000000 1.000000 1.000000 1.000000
6 1 122.425239 244.504310 122.425239 244.504310 0.000000 -0.000000 1.000000 1.000000 1.000000
7 1 161.476468 198.975244 161.476468 198.975244 -0.000000 0.000000 1.000000 1.000000 1.000000
8 1 43.012699 43.267058 43.012699 43.267058 -0.000000 -0.000000 1.000000 1.000000 1.000000
9 1 56.846372 184.872651 56.846372 184.872651 -0.000000 0.000000 1.000000 1.000000 1.000000
10 1 95.129274 225.557396 95.129274 225.557396 0.000000 0.000000 1.000000 1.000000 1.000000
11 1 32.147843 33.403660 32.147843 33.403660 0.000000 -0.000000 1.000000 1.000000 1.000000
12 1 170.699667 154.226761 170.699667 154.226761 -0.000000 0.000000 1.000000 1.000000 1.000000
13 1 118.008762 95.374561 118.008762 95.374561 0.000000 -0.000000 1.000000 1.000000 1.000000
14 1 14.719221 128.600402 14.719221 128.600402 -0.000000 -0.000000 1.000000 1.000000 1.000000
15 1 228.234725 79.759684 228.234725 79.759684 0.000000 -0.000000 1.000000 1.000000 1.000000
16 1 82.626934 59.413641 82.626934 59.413641 -0.000000 -0.000000 1.000000 1.000000 1.000000
17 1 155.769670 192.784600 155.769670 192.784600 0.000000 0.000000 1.000000 1.000000 1.000000
18 1 176.737237 96.265949 176.737237 96.265949 -0.000000 -0.000000 1.000000 1.000000 1.000000
19 1 110.688411 106.332274 110.688411 106.332274 -0.000000 -0.000000 1.000000 1.000000 1.000000
20 1 37.646630 120.941218 37.646630 120.941218 0.000000 -0.000000 1.000000 1.000000 1.000000
21 1 108.134075 60.261712 108.134075 60.261712 0.000000 0.000000 1.000000 1.000000 1.000000
22 1 66.631225 58.185531 66.631225 58.185531 -0.000000 -0.000000 1.000000 1.000000 1.000000
23 1 101.443779 25.376634 101.443779 25.376634 -0.000000 0.000000 1.000000 1.000000 1.000000
24 1 140.142176 102.900706 140.142176 102.900706 0.000000 0.000000 1.000000 1.000000 1.000000
25 1 142.071160 234.341849 142.071160 234.341849 0.000000 0.000000 1.000000 1.000000 1.000000
26 1 53.531328 239.307836 53.531328 239.307836 0.000000 -0.000000 1.000000 1.000000 1.000000
27 1 223.650489 142.215187 223.650489 142.215187 0.000000 0.000000 1.000000 1.000000 1.000000
28 1 45.697740 86.224219 45.697740 86.224219 0.000000 0.000000 1.000000 1.000000 1.000000
29 1 37.279246 69.188098 37.279246 69.188098 -0.000000 0.000000 1.000000 1.000000 1.000000
30 1 37.485849 141.535677 37.485849 141.535677 -0.000000 0.000000 1.000000 1.000000 1.000000
31 1 228.658173 70.237314 228.658173 70.237314 0.000000 0.000000 1.000000 1.000000 1.000000
32 1 177.458360 170.757299 177.458360 170.757299 -0.000000 0.000000 1.000000 1.000000 1.000000
33 1 100.831808 45.597306 100.831808 45.597306 0.000000 -0.000000 1.000000 1.000000 1.000000
34 1 6.939592 59.248500 253.165563 59.248500 -0.000000 -0.000000 1.000000 1.000000 1.000000
35 1 50.893575 97.195926 50.893575 97.195926 0.000000 -0.000000 1.000000 1.000000 1.000000
36 1 222.609720 93.369339 222.609720 93.369339 -0.000000 -0.000000 1.000000 1.000000 1.000000
37 1 78.156793 66.169745 78.156793 66.169745 0.000000 0.000000 1.000000 1.000000 1.000000
38 1 132.237258 8.653862 132.237258 8.653862 0.000000 0.000000 1.000000 1.000000 1.000000
39 1 127.205497 108.612939 127.205497 108.612939 0.000000 0.000000 1.000000 1.000000 1.000000
40 1 212.117875 59.991295 212.117875 59.991295 -0.000000 0.000000 1.000000 1.000000 1.000000
41 1 200.927059 235.169979 200.927059 -11.055992 -0.000000 -0.000000 1.000000 1.000000 1.000000
42 1 182.832982 15.727485 182.832982 15.727485 -0.000000 0.000000 1.000000 1.000000 1.000000
43 1 45.478354 208.223826 45.478354 208.223826 -0.000000 0.000000 1.000000 1.000000 1.000000
44 1 15.761374 219.743953 15.761374 219.743953 0.000000 0.000000 1.000000 1.000000 1.000000
45 1 131.472403 27.923016 131.472403 27.923016 -0.000000 -0.000000 1.000000 1.000000 1.000000
46 1 124.617846 156.031474 124.617846 156.031474 0.000000 0.000000 1.000000 1.000000 1.000000
47 1 197.384015 52.457047 197.384015 52.457047 -0.000000 0.000000 1.000000 1.000000 1.000000
48 1 107.174425 238.187409 107.174425 238.187409 0.000000 0.000000 1.000000 1.000000 1.000000
49 1 190.172619 166.102462 190.172619 166.102462 -0.000000 0.000000 1.000000 1.000000 1.000000
50 1 104.977369 31.418929 104.977369 31.418929 -0.000000 0.000000 1.000000 1.000000 1.000000
51 1 6.235441 111.488321 252.461412 111.488321 0.000000 -0.000000 1.000000 1.000000 1.000000
52 1 31.879742 178.430455 31.879742 178.430455 -0.000000 0.000000 1.000000 1.000000 1.000000
53 1 60.221802 42.673735 60.221802 42.673735 0.000000 -0.000000 1.000000 1.000000 1.000000
54 1 145.493953 123.164733 145.493953 123.164733 0.000000 -0.000000 1.000000 1.000000 1.000000
55 1 55.148563 134.826364 55.148563 134.826364 0.000000 -0.000000 1.000000 1.000000 1.000000
56 1 115.760609 16.823205 115.760609 16.823205 0.000000 0.000000 1.000000 1.000000 1.000000
57 1 110.401717 223.223065 110.401717 223.223065 0.000000 -0.000000 1.000000 1.000000 1.000000
58 1 215.689976 196.774112 215.689976 196.774112 -0.000000 0.000000 1.000000 1.000000 1.000000
59 1 164.196940 127.966353 164.196940 127.966353 0.000000 0.000000 1.000000 1.000000 1.000000
60 1 151.280436 136.389869 151.280436 136.389869 0.000000 -0.000000 1.000000 1.000000 1.000000
61 1 135.374976 104.115283 135.374976 104.115283 -0.000000 0.000000 1.000000 1.000000 1.000000
62 1 142.915266 243.436618 142.915266 243.436618 0.000000 -0.000000 1.000000 1.000000 1.000000
63 1 237.611705 224.122039 237.611705 224.122039 0.000000 0.000000 1.000000 1.000000 1.000000
64 1 181.075203 185.719277 181.075203 185.719277 -0.000000 0.000000 1.000000 1.000000 1.000000
65 1 145.598070 185.129743 145.598070 185.129743 -0.000000 0.000000 1.000000 1.000000 1.000000
66 1 61.769964 154.696939 61.769964 154.696939 0.000000 0.000000 1.000000 1.000000 1.000000
67 1 69.286618 200.266383 69.286618 200.266383 0.000000 0.000000 1.000000 1.000000 1.000000
68 1 16.982347 35.726314 16.982347 35.726314 0.000000 -0.000000 1.000000 1.000000 1.000000
69 1 111.894744 50.004588 111.894744 50.004588 -0.000000 0.000000 1.000000 1.000000 1.000000
70 1 174.333164 86.971963 174.333164 86.971963 -0.000000 -0.000000 1.000000 1.000000 1.000000
71 1 120.918412 155.708124 120.918412 155.708124 -0.000000 -0.000000 1.000000 1.000000 1.000000
72 1 136.385698 210.420843 136.385698 210.420843 -0.000000 0.000000 1.000000 1.000000 1.000000
73 1 124.244627 57.671368 124.244627 57.671368 -0.000000 -0.000000 1.000000 1.000000 1.000000
74 1 21.000940 217.581441 21.000940 217.581441 -0.000000 -0.000000 1.000000 1.000000 1.000000
75 1 23.423183 203.129651 23.423183 203.129651 -0.000000 -0.000000 1.000000 1.000000 1.000000
76 1 202.079213 48.429480 202.079213 48.429480 -0.000000 0.000000 1.000000 1.000000 1.000000
77 1 41.421082 104.663067 41.421082 104.663067 -0.000000 0.000000 1.000000 1.000000 1.000000
78 1 132.659642 203.087292 132.659642 203.087292 -0.000000 0.000000 1.000000 1.000000 1.000000
79 1 20.373783 186.319345 20.373783 186.319345 0.000000 0.000000 1.000000 1.000000 1.000000
80 1 79.508485 114.243689 79.508485 114.243689 0.000000 -0.000000 1.000000 1.000000 1.000000
81 1 128.577540 67.162291 128.577540 67.162291 0.000000 -0.000000 1.000000 1.000000 1.000000
82 1 4.563194 123.428632 250.789165 123.428632 0.000000 -0.000000 1.000000 1.000000 1.000000
83 1 68.332537 171.011047 68.332537 171.011047 -0.000000 -0.000000 1.000000 1.000000 1.000000
84 1 164.080921 31.821873 164.080921 31.821873 -0.000000 -0.000000 1.000000 1.000000 1.000000
85 1 215.423237 7.820524 215.423237 7.820524 -0.000000 -0.000000 1.000000 1.000000 1.000000
86 1 136.910673 91.830953 136.910673 91.830953 -0.000000 0.000000 1.000000 1.000000 1.000000
87 1 45.994950 179.616654 45.994950 179.616654 -0.000000 -0.000000 1.000000 1.000000 1.000000
88 1 34.192064 11.283151 34.192064 11.283151 0.000000 -0.000000 1.000000 1.000000 1.000000
89 1 103.192833 105.032193 103.192833 105.032193 -0.000000 -0.000000 1.000000 1.000000 1.000000
90 1 131.358061 141.713868 131.358061 141.713868 -0.000000 -0.000000 1.000000 1.000000 1.000000
91 1 27.851721 82.648886 27.851721 82.648886 0.000000 -0.000000 1.000000 1.000000 1.000000
92 1 214.370881 54.250810 214.370881 54.250810 -0.000000 0.000000 1.000000 1.000000 1.000000
93 1 42.043637 224.887078 42.043637 224.887078 -0.000000 0.000000 1.000000 1.000000 1.000000
94 1 6.932735 74.817599 253.158706 74.817599 0.000000 0.000000 1.000000 1.000000 1.000000
95 1 232.240220 209.651654 232.240220 209.651654 -0.000000 -0.000000 1.000000 1.000000 1.000000
96 1 94.329538 46.468142 94.329538 46.468142 -0.000000 -0.000000 1.000000 1.000000 1.000000
97 1 126.406106 44.497232 126.406106 44.497232 0.000000 0.000000 1.000000 1.000000 1.000000
98 1 119.862390 241.173322 119.862390 241.173322 0.000000 -0.000000 1.000000 1.000000 1.000000
99 1 55.023802 17.650892 55.023802 17.650892 -0.000000 -0.000000 1.000000 1.000000 1.000000
100 1 33.856008 58.371662 33.856008 58.371662 -0.000000 0.000000 1.000000 1.000000 1.000000
101 1 17.966682 58.454469 17.966682 58.454469 -0.000000 -0.000000 1.000000 1.000000 1.000000
102 1 136.716850 245.779399 136.716850 245.779399 0.000000 0.000000 1.000000 1.000000 1.000000
103 1 23.747356 172.618764 23.747356 172.618764 -0.000000 0.000000 1.000000 1.000000 1.000000
104 1 101.271834 88.882829 101.271834 88.882829 0.000000 0.000000 1.000000 1.000000 1.000000
105 1 196.742461 7.741625 196.742461 7.741625 -0.000000 0.000000 1.000000 1.000000 1.000000
106 1 10.823838 131.637545 10.823838 131.637545 0.000000 -0.000000 1.000000 1.000000 1.000000
107 1 185.257596 216.301037 185.257596 216.301037 -0.000000 0.000000 1.000000 1.000000 1.000000
108 1 35.822916 77.231387 35.822916 77.231387 0.000000 -0.000000 1.000000 1.000000 1.000000
109 1 8.236182 143.889351 8.236182 143.889351 -0.000000 -0.000000 1.000000 1.000000 1.000000
110 1 206.216750 244.627428 206.216750 244.627428 -0.000000 0.000000 1.000000 1.000000 1.000000
111 1 1.443302 94.248995 247.669273 94.248995 -0.000000 0.000000 1.000000 1.000000 1.000000
112 1 33.009422 108.028609 33.009422 108.028609 -0.000000 0.000000 1.000000 1.000000 1.000000
113 1 98.502047 4.337984 98.502047 4.337984 -0.000000 0.000000 1.000000 1.000000 1.000000
114 1 40.486845 119.018431 40.486845 119.018431 0.000000 -0.000000 1.000000 1.000000 1.000000
115 1 96.126817 105.505130 96.126817 105.505130 -0.000000 0.000000 1.000000 1.000000 1.000000
116 1 111.094763 116.885814 111.094763 116.885814 -0.000000 -0.000001 1.000000 1.000000 1.000000
117 1 58.120229 103.425413 58.120229 103.425413 -0.000000 -0.000000 1.000000 1.000000 1.000000
118 1 194.389572 207.375598 194.389572 207.375598 0.000000 0.000000 1.000000 1.000000 1.000000
119 1 115.746665 155.350405 115.746665 155.350405 -0.000000 0.000000 1.000000 1.000000 1.000000
120 1 222.010715 135.053375 222.010715 135.053375 -0.000000 -0.000000 1.000000 1.000000 1.000000
121 1 51.888132 225.575122 51.888132 225.575122 0.000000 -0.000000 1.000000 1.000000 1.000000
122 1 106.045091 186.982126 106.045091 186.982126 -0.000000 -0.000000 1.000000 1.000000 1.000000
123 1 84.031889 107.901069 84.031889 107.901069 0.000000 -0.000000 1.000000 1.000000 1.000000
124 1 64.821554 93.923783 64.821554 93.923783 -0.000000 0.000000 1.000000 1.000000 1.000000
125 1 44.516122 30.596291 44.516122 30.596291 -0.000000 -0.000000 1.000000 1.000000 1.000000
126 1 111.404640 56.542462 111.404640 56.542462 0.000000 0.000000 1.000000 1.000000 1.000000
127 1 244.821629 93.973637 244.821629 93.973637 -0.000000 -0.000000 1.000000 1.000000 1.000000
128 1 84.066201 245.284135 84.066201 245.284135 -0.000000 -0.000000 1.000000 1.000000 1.000000
129 1 96.596467 190.104074 96.596467 190.104074 0.000000 -0.000000 1.000000 1.000000 1.000000
130 1 235.460093 46.917620 235.460093 46.917620 -0.000000 -0.000000 1.000000 1.000000 1.000000
131 1 10.402989 44.683353 10.402989 44.683353 -0.000000 -0.000000 1.000000 1.000000 1.000000
132 1 72.179104 31.772616 72.179104 31.772616 0.000000 -0.000000 1.000000 1.000000 1.000000
133 1 10.466937 196.556189 10.466937 196.556189 -0.000000 0.000000 1.000000 1.000000 1.000000
134 1 97.573774 177.752538 97.573774 177.752538 -0.000000 -0.000000 1.000000 1.000000 1.000000
135 1 121.914961 96.189099 121.914961 96.189099 -0.000000 0.000000 1.000000 1.000000 1.000000
136 1 203.833427 93.133590 203.833427 93.133590 0.000000 -0.000000 1.000000 1.000000 1.000000
137 1 92.628835 67.152305 92.628835 67.152305 0.000000 0.000000 1.000000 1.000000 1.000000
138 1 124.130875 230.779479 124.130875 -15.446492 -0.000000 0.000000 1.000000 1.000000 1.000000
139 1 203.778321 81.213159 203.778321 81.213159 -0.000000 0.000000 1.000000 1.000000 1.000000
140 1 43.630298 70.379019 43.630298 70.379019 -0.000000 -0.000000 1.000000 1.000000 1.000000
141 1 163.340588 9.448007 163.340588 9.448007 -0.000000 -0.000001 1.000000 1.000000 1.000000
142 1 187.622339 186.292319 187.622339 186.292319 -0.000001 0.000001 1.000000 1.000000 1.000000
143 1 147.723630 227.462862 147.723630 227.462862 0.000002 -0.000001 1.000000 1.000000 1.000000
144 1 141.665826 73.760444 141.665826 73.760444 -0.000000 0.000000 1.000000 1.000000 1.000000
145 1 90.281537 24.954556 90.281537 24.954556 0.000000 -0.000000 1.000000 1.000000 1.000000
146 1 198.013306 127.706923 198.013306 127.706923 -0.000000 0.000000 1.000000 1.000000 1.000000
147 1 58.527536 210.517787 58.527536 210.517787 0.000000 -0.000000 1.000000 1.000000 1.000000
148 1 5.919201 177.799097 5.919201 177.799097 -0.000000 0.000000 1.000000 1.000000 1.000000
149 1 92.162504 193.437965 92.162504 193.437965 -0.000000 -0.000000 1.000000 1.000000 1.000000
150 1 117.555320 190.430223 117.555320 190.430223 -0.000000 0.000000 1.000000 1.000000 1.000000
151 1 42.263425 21.513309 42.263425 21.513309 0.000000 -0.000000 1.000000 1.000000 1.000000
152 1 6.343969 121.589289 6.343969 121.589289 -0.000000 0.000000 1.000000 1.000000 1.000000
153 1 6.412971 30.315625 6.412971 30.315625 -0.000000 0.000000 1.000000 1.000000 1.000000
154 1 147.550327 142.528374 147.550327 142.528374 0.000000 0.000000 1.000000 1.000000 1.000000
155 1 128.499917 50.625930 128.499917 50.625930 -0.000000 0.000000 1.000000 1.000000 1.000000
156 1 229.907869 242.907550 229.907869 242.907550 -0.000000 0.000000 1.000000 1.000000 1.000000
157 1 101.690436 130.269997 101.690436 130.269997 0.000000 0.000000 1.000000 1.000000 1.000000
158 1 58.312780 200.685169 58.312780 200.685169 -0.000000 0.000000 1.000000 1.000000 1.000000
159 1 6.600538 170.102021 252.826509 170.102021 0.000000 -0.000000 1.000000 1.000000 1.000000
160 1 66.719748 10.093897 66.719748 256.319868 0.000000 -0.000000 1.000000 1.000000 1.000000
161 1 79.854688 81.931222 79.854688 81.931222 0.000000 0.000000 1.000000 1.000000 1.000000
162 1 163.525483 227.895330 163.525483 227.895330 -0.000000 -0.000000 1.000000 1.000000 1.000000
163 1 227.707802 229.248242 227.707802 229.248242 -0.000000 0.000000 1.000000 1.000000 1.000000
164 1 210.783161 6.684714 210.783161 6.684714 -0.000000 -0.000000 1.000000 1.000000 1.000000
165 1 121.831273 173.777702 121.831273 173.777702 0.000000 0.000000 1.000000 1.000000 1.000000
166 1 171.069989 120.984191 171.069989 120.984191 0.000000 -0.000000 1.000000 1.000000 1.000000
167 1 165.749193 33.875256 165.749193 33.875256 -0.000000 -0.000000 1.000000 1.000000 1.000000
168 1 204.549132 28.687297 204.549132 28.687297 0.000000 -0.000000 1.000000 1.000000 1.000000
169 1 151.513891 7.643574 151.513891 7.643574 0.000000 -0.000000 1.000000 1.000000 1.000000
170 1 200.498490 79.030449 200.498490 79.030449 0.000000 -0.000000 1.000000 1.000000 1.000000
171 1 198.109738 119.207043 198.109738 119.207043 -0.000000 0.000000 1.000000 1.000000 1.000000
172 1 234.367812 190.616479 234.367812 190.616479 0.000000 -0.000000 1.000000 1.000000 1.000000
173 1 5.152024 7.306742 5.152024 7.306742 0.000000 0.000000 1.000000 1.000000 1.000000
174 1 196.332644 91.843075 196.332644 91.843075 0.000000 0.000000 1.000000 1.000000 1.000000
175 1 195.809134 123.540391 195.809134 123.540391 -0.000000 0.000000 1.000000 1.000000 1.000000
176 1 62.885770 28.854990 62.885770 28.854990 -0.000000 0.000000 1.000000 1.000000 1.000000
177 1 190.227386 59.949247 190.227386 59.949247 -0.000000 -0.000000 1.000000 1.000000 1.000000
178 1 77.915920 26.255907 77.915920 26.255907 0.000000 0.000000 1.000000 1.000000 1.000000
179 1 127.500509 91.686950 127.500509 91.686950 0.000000 -0.000000 1.000000 1.000000 1.000000
180 1 49.760843 132.424537 49.760843 132.424537 0.000000 -0.000000 1.000000 1.000000 1.000000
181 1 28.068930 114.169381 28.068930 114.169381 0.000000 0.000000 1.000000 1.000000 1.000000
182 1 204.992492 185.075125 204.992492 185.075125 0.000001 -0.000000 1.000000 1.000000 1.000000
183 1 182.447239 143.131032 182.447239 143.131032 0.000000 -0.000000 1.000000 1.000000 1.000000
184 1 79.919251 210.506741 79.919251 210.506741 0.000000 -0.000000 1.000000 1.000000 1.000000
185 1 140.679484 122.935344 140.679484 122.935344 0.000000 -0.000000 1.000000 1.000000 1.000000
186 1 111.720212 20.140638 111.720212 20.140638 0.000000 -0.000000 1.000000 1.000000 1.000000
187 1 26.853823 3.934731 26.853823 250.160702 -0.000000 -0.000000 1.000000 1.000000 1.000000
188 1 78.062273 123.832046 78.062273 123.832046 0.000000 -0.000000 1.000000 1.000000 1.000000
189 1 12.110083 141.457682 12.110083 141.457682 0.000000 0.000000 1.000000 1.000000 1.000000
190 1 61.570136 239.833983 61.570136 239.833983 -0.000000 0.000000 1.000000 1.000000 1.000000
191 1 154.081907 7.205867 154.081907 253.431838 0.000000 0.000000 1.000000 1.000000 1.000000
192 1 8.475847 197.450017 254.701818 197.450017 -0.000000 0.000000 1.000000 1.000000 1.000000
193 1 97.576747 78.740581 97.576747 78.740581 -0.000000 -0.000000 1.000000 1.000000 1.000000
194 1 9.421117 205.074691 9.421117 205.074691 -0.000000 -0.000000 1.000000 1.000000 1.000000
195 1 66.424387 212.646029 66.424387 212.646029 -0.000000 -0.000000 1.000000 1.000000 1.000000
196 1 227.434822 152.258513 227.434822 152.258513 0.000000 0.000000 1.000000 1.000000 1.000000
197 1 29.590712 212.900840 29.590712 212.900840 -0.000000 -0.000000 1.000000 1.000000 1.000000
198 1 139.894773 52.191280 139.894773 52.191280 -0.000000 -0.000000 1.000000 1.000000 1.000000
199 1 108.588566 119.183293 108.588566 119.183293 0.000000 0.000000 1.000000 1.000000 1.000000
200 1 107.645480 68.180630 107.645480 68.180630 -0.000000 0.000000 1.000000 1.000000 1.000000
201 1 80.336219 59.837613 80.336219 59.837613 -0.000000 -0.000000 1.000000 1.000000 1.000000
202 1 13.058695 222.236800 13.058695 222.236800 -0.000000 -0.000000 1.000000 1.000000 1.000000
203 1 215.795670 104.637213 215.795670 104.637213 0.000000 -0.000000 1.000000 1.000000 1.000000
204 1 155.958436 45.937311 155.958436 45.937311 0.000000 0.000000 1.000000 1.000000 1.000000
205 1 224.266655 204.701405 224.266655 204.701405 0.000000 -0.000000 1.000000 1.000000 1.000000
206 1 208.035849 144.733585 208.035849 144.733585 -0.000000 -0.000000 1.000000 1.000000 1.000000
207 1 65.980807 157.468471 65.980807 157.468471 0.000000 -0.000000 1.000000 1.000000 1.000000
208 1 48.846336 82.835387 48.846336 82.835387 -0.000000 -0.000000 1.000000 1.000000 1.000000
209 1 230.069782 153.543476 230.069782 153.543476 0.000000 -0.000000 1.000000 1.000000 1.000000
210 1 108.591368 159.474647 108.591368 159.474647 0.000000 0.000000 1.000000 1.000000 1.000000
211 1 190.653091 56.993772 190.653091 56.993772 0.000000 -0.000000 1.000000 1.000000 1.000000
212 1 13.147811 100.518328 13.147811 100.518328 -0.000000 -0.000000 1.000000 1.000000 1.000000
213 1 118.595318 223.962120 118.595318 223.962120 -0.000000 -0.000000 1.000000 1.000000 1.000000
214 1 44.878974 104.970488 44.878974 104.970488 -0.000000 -0.000000 1.000000 1.000000 1.000000
215 1 89.697007 66.517983 89.697007 66.517983 -0.000000 0.000000 1.000000 1.000000 1.000000
216 1 216.561327 212.117555 216.561327 212.117555 0.000000 0.000000 1.000000 1.000000 1.000000
217 1 19.915379 83.824912 19.915379 83.824912 -0.000000 0.000000 1.000000 1.000000 1.000000
218 1 77.010859 142.316524 77.010859 142.316524 -0.000000 0.000000 1.000000 1.000000 1.000000
219 1 158.536677 172.102628 158.536677 172.102628 0.000000 -0.000000 1.000000 1.000000 1.000000
220 1 146.440709 196.421908 146.440709 196.421908 -0.000000 0.000000 1.000000 1.000000 1.000000
221 1 209.832912 196.240620 209.832912 196.240620 -0.000000 0.000000 1.000000 1.000000 1.000000
222 1 67.823324 241.705557 67.823324 241.705557 0.000000 0.000000 1.000000 1.000000 1.000000
223 1 211.622464 100.648397 211.622464 100.648397 -0.000000 -0.000000 1.000000 1.000000 1.000000
224 1 159.105684 45.272737 159.105684 45.272737 -0.000000 -0.000000 1.000000 1.000000 1.000000
225 1 70.076832 5.571513 70.076832 5.571513 0.000000 -0.000000 1.000000 1.000000 1.000000
226 1 66.349672 167.763711 66.349672 167.763711 0.000000 0.000000 1.000000 1.000000 1.000000
227 1 164.607482 121.091697 164.607482 121.091697 -0.000000 0.000000 1.000000 1.000000 1.000000
228 1 100.916769 122.262730 100.916769 122.262730 -0.000000 -0.000000 1.000000 1.000000 1.000000
229 1 120.049742 175.513995 120.049742 175.513995 -0.000000 0.000000 1.000000 1.000000 1.000000
230 1 88.151275 171.948420 88.151275 171.948420 -0.000000 0.000000 1.000000 1.000000 1.000000
231 1 148.470931 200.522723 148.470931 200.522723 -0.000000 0.000000 1.000000 1.000000 1.000000
232 1 150.290607 43.158308 150.290607 43.158308 -0.000000 0.000000 1.000000 1.000000 1.000000
233 1 118.916452 218.748532 118.916452 218.748532 -0.000000 0.000000 1.000000 1.000000 1.000000
234 1 244.148154 80.320487 244.148154 80.320487 0.000000 0.000000 1.000000 1.000000 1.000000
235 1 204.604670 98.107926 204.604670 98.107926 0.000000 -0.000000 1.000000 1.000000 1.000000
236 1 72.956021 104.899966 72.956021 104.899966 -0.000000 0.000000 1.000000 1.000000 1.000000
237 1 185.368557 203.947842 185.368557 203.947842 -0.000000 0.000000 1.000000 1.000000 1.000000
238 1 111.327851 91.537464 111.327851 91.537464 -0.000000 0.000000 1.000000 1.000000 1.000000
239 1 142.877390 220.662410 142.877390 220.662410 -0.000000 -0.000002 1.000000 1.000000 1.000000
240 1 97.421258 95.157433 97.421258 95.157433 -0.000000 0.000000 1.000000 1.000000 1.000000
241 1 117.490896 165.779860 117.490896 165.779860 -0.000000 -0.000000 1.000000 1.000000 1.000000
242 1 5.897243 16.643235 5.897243 16.643235 -0.000000 -0.000000 1.000000 1.000000 1.000000
243 1 164.218316 21.480942 164.218316 21.480942 0.000000 0.000000 1.000000 1.000000 1.000000
244 1 198.005689 57.571255 198.005689 57.571255 -0.000000 -0.000000 1.000000 1.000000 1.000000
245 1 7.199784 244.051394 7.199784 -2.174577 0.000000 -0.000000 1.000000 1.000000 1.000000
246 1 133.162278 107.254442 133.162278 107.254442 -0.000000 -0.000000 1.000000 1.000000 1.000000
247 1 87.250759 127.659939 87.250759 127.659939 0.000000 -0.000000 1.000000 1.000000 1.000000
248 1 235.565990 28.550535 -10.659981 28.550535 -0.000000 -0.000000 1.000000 1.000000 1.000000
249 1 55.540933 33.451547 55.540933 33.451547 -0.000000 0.000000 1.000000 1.000000 1.000000
250 1 105.542484 164.463586 105.542484 164.463586 0.000000 0.000000 1.000000 1.000000 1.000000
251 1 88.532269 153.700640 88.532269 153.700640 -0.000000 0.000000 1.000000 1.000000 1.000000
252 1 197.142544 157.767337 197.142544 157.767337 -0.000000 -0.000000 1.000000 1.000000 1.000000
253 1 83.092930 155.483340 83.092930 155.483340 0.000000 0.000000 1.000000 1.000000 1.000000
254 1 223.175287 160.509586 223.175287 160.509586 0.000000 -0.000000 1.000000 1.000000 1.000000
255 1 219.207432 64.999612 219.207432 64.999612 -0.000000 0.000000 1.000000 1.000000 1.000000
256 1 9.784901 217.972474 9.784901 217.972474 -0.000000 0.000000 1.000000 1.000000 1.000000
257 1 232.659406 147.293943 232.659406 147.293943 0.000000 0.000000 1.000000 1.000000 1.000000
258 1 46.589025 2.122018 46.589025 2.122018 0.000000 0.000000 1.000000 1.000000 1.000000
259 1 176.040638 196.451404 176.040638 196.451404 -0.000000 -0.000000 1.000000 1.000000 1.000000
260 1 241.008928 42.988280 241.008928 42.988280 -0.000000 -0.000000 1.000000 1.000000 1.000000
261 1 215.419957 0.692916 215.419957 246.918887 -0.000000 -0.000000 1.000000 1.000000 1.000000
262 1 113.363598 72.430788 113.363598 72.430788 0.000000 0.000000 1.000000 1.000000 1.000000
263 1 45.399113 109.435280 45.399113 109.435280 0.000000 -0.000000 1.000000 1.000000 1.000000
264 1 130.229749 149.720456 130.229749 149.720456 -0.000000 0.000000 1.000000 1.000000 1.000000
265 1 245.173050 140.957111 245.173050 140.957111 -0.000000 -0.000000 1.000000 1.000000 1.000000
266 1 58.500245 54.693544 58.500245 54.693544 -0.000000 0.000000 1.000000 1.000000 1.000000
267 1 189.457442 135.480855 189.457442 135.480855 -0.000000 -0.000000 1.000000 1.000000 1.000000
268 1 220.392226 157.302184 220.392226 157.302184 0.000000 0.000000 1.000000 1.000000 1.000000
269 1 159.637266 13.971783 159.637266 13.971783 -0.000000 -0.000000 1.000000 1.000000 1.000000
270 1 79.619911 79.737482 79.619911 79.737482 -0.000000 -0.000000 1.000000 1.000000 1.000000
271 1 152.264140 234.542334 152.264140 234.542334 0.000001 0.000000 1.000000 1.000000 1.000000
272 1 104.623349 123.464074 104.623349 123.464074 -0.000000 -0.000000 1.000000 1.000000 1.000000
273 1 164.729388 106.108352 164.729388 106.108352 0.000000 0.000000 1.000000 1.000000 1.000000
274 1 203.747031 228.982021 203.747031 228.982021 0.000000 -0.000000 1.000000 1.000000 1.000000
275 1 189.699798 223.601191 189.699798 223.601191 0.000000 0.000000 1.000000 1.000000 1.000000
276 1 82.482463 224.741363 82.482463 224.741363 0.000000 0.000000 1.000000 1.000000 1.000000
277 1 9.516470 150.397916 9.516470 150.397916 -0.000000 0.000000 1.000000 1.000000 1.000000
278 1 156.107611 52.864019 156.107611 52.864019 -0.000000 0.000000 1.000000 1.000000 1.000000
279 1 221.580474 169.038394 221.580474 169.038394 -0.000000 -0.000000 1.000000 1.000000 1.000000
280 1 12.151396 35.613940 12.151396 35.613940 0.000000 -0.000000 1.000000 1.000000 1.000000
281 1 238.827474 81.863079 238.827474 81.863079 0.000000 0.000000 1.000000 1.000000 1.000000
282 1 119.191237 12.983283 119.191237 12.983283 -0.000000 0.000000 1.000000 1.000000 1.000000
283 1 211.414859 164.570444 211.414859 164.570444 0.000000 0.000000 1.000000 1.000000 1.000000
284 1 84.858648 89.790486 84.858648 89.790486 0.000000 -0.000000 1.000000 1.000000 1.000000
285 1 212.780813 172.118367 212.780813 172.118367 0.000000 0.000000 1.000000 1.000000 1.000000
286 1 218.637696 138.170196 218.637696 138.170196 0.000000 0.000000 1.000000 1.000000 1.000000
287 1 102.115569 174.284083 102.115569 174.284083 0.000000 0.000000 1.000000 1.000000 1.000000
288 1 103.706016 202.804588 103.706016 202.804588 0.000000 -0.000000 1.000000 1.000000 1.000000
289 1 181.254023 221.181826 181.254023 221.181826 -0.000000 -0.000000 1.000000 1.000000 1.000000
290 1 116.912683 80.167898 116.912683 80.167898 -0.000000 -0.000000 1.000000 1.000000 1.000000
291 1 245.900001 199.291197 245.900001 199.291197 0.000000 0.000000 1.000000 1.000000 1.000000
292 1 221.492598 86.354439 221.492598 86.354439 0.000000 -0.000000 1.000000 1.000000 1.000000
293 1 168.315458 215.113771 168.315458 215.113771 -0.000000 0.000000 1.000000 1.000000 1.000000
294 1 80.472879 77.248784 80.472879 77.248784 0.000000 -0.000000 1.000000 1.000000 1.000000
295 1 214.520945 33.319077 214.520945 33.319077 -0.000000 -0.000000 1.000000 1.000000 1.000000
296 1 142.319362 55.741874 142.319362 55.741874 0.000000 0.000000 1.000000 1.000000 1.000000
297 1 84.688718 91.981131 84.688718 91.981131 0.000001 0.000000 1.000000 1.000000 1.000000
298 1 72.605211 192.913961 72.605211 192.913961 -0.000000 0.000000 1.000000 1.000000 1.000000
299 1 29.892319 169.370592 29.892319 169.370592 -0.000000 0.000000 1.000000 1.000000 1.000000
300 1 160.972192 78.811145 160.972192 78.811145 0.000000 0.000000 1.000000 1.000000 1.000000
301 1 73.028916 62.364998 73.028916 62.364998 -0.000000 -0.000000 1.000000 1.000000 1.000000
302 1 125.242410 244.662150 125.242410 -1.563821 -0.000000 -0.000000 1.000000 1.000000 1.000000
303 1 144.360881 3.441852 144.360881 3.441852 -0.000000 -0.000000 1.000000 1.000000 1.000000
304 1 31.261204 85.204821 31.261204 85.204821 0.000000 -0.000000 1.000000 1.000000 1.000000
305 1 133.344993 198.469745 133.344993 198.469745 0.000000 0.000000 1.000000 1.000000 1.000000
306 1 111.820860 134.812488 111.820860 134.812488 -0.000001 -0.000000 1.000000 1.000000 1.000000
307 1 98.947526 85.906947 98.947526 85.906947 -0.000000 0.000000 1.000000 1.000000 1.000000
308 1 165.959282 77.623475 165.959282 77.623475 0.000000 -0.000000 1.000000 1.000000 1.000000
309 1 64.785469 91.881744 64.785469 91.881744 -0.000000 -0.000000 1.000000 1.000000 1.000000
310 1 102.347705 11.223597 102.347705 11.223597 0.000000 -0.000000 1.000000 1.000000 1.000000
311 1 45.859177 71.430697 45.859177 71.430697 0.000000 -0.000000 1.000000 1.000000 1.000000
312 1 33.473613 157.088326 33.473613 157.088326 -0.000000 0.000000 1.000000 1.000000 1.000000
313 1 155.705463 234.656672 155.705463 234.656672 0.000000 0.000000 1.000000 1.000000 1.000000
314 1 146.335902 93.955071 146.335902 93.955071 -0.000000 -0.000000 1.000000 1.000000 1.000000
315 1 232.683312 94.123488 232.683312 94.123488 0.000000 0.000000 1.000000 1.000000 1.000000
316 1 221.648601 68.836536 221.648601 68.836536 0.000000 -0.000000 1.000000 1.000000 1.000000