ITEM: TIMESTEP
13400.000000
ITEM: NUMBER OF ATOMS
5000
ITEM: BOX BOUNDS xy xz yz
0 234.207626 0
0 234.207626 0
0 2 0
ITEM: ATOMS id type x y xu yu vx vy radius m z
0 1 135.360750 142.151423 135.360750 142.151423 0.000000 0.000000 1.000000 1.000000 1.000000
1 1 203.373506 178.961872 -30.834120 178.961872 -0.000000 0.000000 1.000000 1.000000 1.000000
2 1 29.906072 62.731462 29.906072 62.731462 -0.000000 0.000000 1.000000 1.000000 1.000000
3 1 95.040614 136.466155 95.040614 136.466155 0.000000 0.000000 1.000000 1.000000 1.000000
4 1 231.441096 155.322961 -2.766530 155.322961 0.000000 0.000000 1.000000 1.000000 1.000000
5 1 145.787536 1.850337 145.787536 1.850337 0.000000 -0.000000 1.000000 1.000000 1.000000
6 1 44.932736 94.540225 44.932736 94.540225 0.000000 0.000000 1.000000 1.000000 1.000000
7 1 70.689046 35.345782 70.689046 269.553408 -0.000000 0.000000 1.000000 1.000000 1.000000
8 1 77.281608 193.202269 77.281608 193.202269 0.000000 0.000000 1.000000 1.000000 1.000000
9 1 21.439680 191.846197 21.439680 191.846197 -0.000000 0.000000 1.000000 1.000000 1.000000
10 1 115.368738 129.803087 115.368738 129.803087 -0.000000 -0.000000 1.000000 1.000000 1.000000
11 1 125.933271 38.220902 125.933271 38.220902 -0.000000 0.000000 1.000000 1.000000 1.000000
12 1 188.756964 136.309733 188.756964 136.309733 0.000000 0.000000 1.000000 1.000000 1.000000
13 1 170.297545 66.128354 170.297545 66.128354 -0.000000 0.000000 1.000000 1.000000 1.000000
14 1 233.101422 149.229673 -1.106204 149.229673 0.000000 -0.000000 1.000000 1.000000 1.000000
15 1 178.458882 157.248948 178.458882 157.248948 0.000000 -0.000000 1.000000 1.000000 1.000000
16 1 50.960123 173.270739 50.960123 173.270739 0.000000 0.000000 1.000000 1.000000 1.000000
17 1 171.428314 91.576097 171.428314 91.576097 -0.000000 0.000000 1.000000 1.000000 1.000000
18 1 75.631254 194.373922 75.631254 194.373922 -0.000000 0.000000 1.000000 1.000000 1.000000
19 1 119.234010 18.247726 119.234010 18.247726 -0.000000 0.000000 1.000000 1.000000 1.000000
20 1 233.804383 129.126600 233.804383 129.126600 0.000000 -0.000000 1.000000 1.000000 1.000000
21 1 8.490783 212.542847 8.490783 212.542847 -0.000000 -0.000000 1.000000 1.000000 1.000000
22 1 178.330158 184.921989 178.330158 184.921989 -0.000000 -0.000000 1.000000 1.000000 1.000000
23 1 171.889859 38.595571 -62.317767 38.595571 -0.000000 -0.000000 1.000000 1.000000 1.000000
24 1 159.658118 210.031447 159.658118 210.031447 -0.000000 0.000000 1.000000 1.000000 1.000000
25 1 196.735964 138.675707 196.735964 138.675707 0.000000 0.000000 1.000000 1.000000 1.000000
26 1 186.870395 54.860962 186.870395 54.860962 -0.000000 -0.000000 1.000000 1.000000 1.000000
27 1 8.094922 234.135912 242.302548 234.135912 -0.000000 -0.000000 1.000000 1.000000 1.000000
28 1 184.889869 229.358674 184.889869 229.358674 -0.000000 -0.000000 1.000000 1.000000 1.000000
29 1 70.148623 142.010791 70.148623 142.010791 0.000000 0.000000 1.000000 1.000000 1.000000
30 1 28.861904 111.427248 263.069530 111.427248 -0.000000 -0.000000 1.000000 1.000000 1.000000
31 1 6.317177 99.467490 6.317177 99.467490 -0.000000 -0.000000 1.000000 1.000000 1.000000
32 1 230.103225 160.363893 230.103225 160.363893 -0.000000 -0.000000 1.000000 1.000000 1.000000
33 1 43.356625 21.438305 43.356625 21.438305 -0.000000 -0.000000 1.000000 1.000000 1.000000
34 1 124.687060 99.907928 124.687060 99.907928 0.000000 0.000000 1.000000 1.000000 1.000000
35 1 52.329149 69.085132 52.329149 69.085132 -0.000000 -0.000000 1.000000 1.000000 1.000000
36 1 70.337228 175.602329 70.337228 175.602329 -0.000000 0.000000 1.000000 1.000000 1.000000
37 1 212.525150 0.577390 212.525150 0.577390 0.000000 -0.000000 1.000000 1.000000 1.000000
38 1 96.055026 85.494252 96.055026 85.494252 0.000000 -0.000000 1.000000 1.000000 1.000000
39 1 151.850015 116.996480 151.850015 116.996480 0.000000 0.000000 1.000000 1.000000 1.000000
40 1 18.912444 190.371493 18.912444 190.371493 -0.000000 -0.000000 1.000000 1.000000 1.000000
41 1 38.839531 53.178645 38.839531 53.178645 -0.000000 -0.000000 1.000000 1.000000 1.000000
42 1 146.852711 81.229319 146.852711 81.229319 -0.000000 0.000000 1.000000 1.000000 1.000000
43 1 44.476990 29.562711 44.476990 29.562711 -0.000000 -0.000000 1.000000 1.000000 1.000000
44 1 31.311628 231.208812 31.311628 231.208812 0.000000 0.000000 1.000000 1.000000 1.000000
45 1 96.091054 116.212915 96.091054 116.212915 -0.000000 -0.000000 1.000000 1.000000 1.000000
46 1 210.281259 227.805581 -23.926367 227.805581 -0.000000 -0.000000 1.000000 1.000000 1.000000
47 1 106.657234 20.103736 106.657234 20.103736 -0.000000 -0.000000 1.000000 1.000000 1.000000
48 1 93.608328 143.008511 93.608328 143.008511 0.000000 -0.000000 1.000000 1.000000 1.000000
49 1 162.682474 112.479495 162.682474 112.479495 0.000000 0.000000 1.000000 1.000000 1.000000
50 1 94.141581 162.302046 94.141581 162.302046 0.000000 -0.000000 1.000000 1.000000 1.000000
51 1 200.954640 110.511843 200.954640 110.511843 -0.000000 0.000000 1.000000 1.000000 1.000000
52 1 17.860000 173.092193 17.860000 173.092193 0.000000 -0.000000 1.000000 1.000000 1.000000
53 1 102.604957 214.577545 102.604957 214.577545 0.000000 0.000000 1.000000 1.000000 1.000000
54 1 6.596364 224.431588 240.803990 224.431588 -0.000000 -0.000000 1.000000 1.000000 1.000000
55 1 131.452402 180.284634 131.452402 180.284634 -0.000000 -0.000000 1.000000 1.000000 1.000000
56 1 130.156973 13.328615 130.156973 13.328615 -0.000000 -0.000000 1.000000 1.000000 1.000000
57 1 134.738513 174.860349 134.738513 174.860349 -0.000000 0.000000 1.000000 1.000000 1.000000
58 1 179.247473 101.077208 179.247473 101.077208 0.000000 -0.000000 1.000000 1.000000 1.000000
59 1 15.670813 22.585831 15.670813 256.793457 0.000000 0.000000 1.000000 1.000000 1.000000
60 1 83.251564 215.046751 83.251564 -19.160875 0.000000 0.000000 1.000000 1.000000 1.000000
61 1 230.248689 23.767707 -3.958937 23.767707 0.000000 0.000000 1.000000 1.000000 1.000000
62 1 71.566156 212.704760 71.566156 212.704760 0.000000 -0.000000 1.000000 1.000000 1.000000
63 1 134.336726 33.638092 134.336726 33.638092 0.000000 -0.000000 1.000000 1.000000 1.000000
64 1 126.341353 114.073695 126.341353 114.073695 -0.000000 -0.000000 1.000000 1.000000 1.000000
65 1 0.386118 218.892945 0.386118 -15.314681 0.000000 0.000000 1.000000 1.000000 1.000000
66 1 130.102769 175.402259 130.102769 175.402259 0.000000 -0.000000 1.000000 1.000000 1.000000
67 1 169.433509 0.094898 169.433509 234.302524 0.000000 0.000000 1.000000 1.000000 1.000000
68 1 86.689260 106.270727 86.689260 106.270727 -0.000000 -0.000000 1.000000 1.000000 1.000000
69 1 142.821446 7.893659 142.821446 242.101285 0.000000 -0.000000 1.000000 1.000000 1.000000
70 1 131.093245 131.974636 131.093245 131.974636 0.000000 -0.000000 1.000000 1.000000 1.000000
71 1 212.068608 136.650897 212.068608 136.650897 -0.000000 -0.000000 1.000000 1.000000 1.000000
72 1 183.516776 126.889440 183.516776 126.889440 -0.000000 0.000000 1.000000 1.000000 1.000000
73 1 36.732574 80.080148 36.732574 80.080148 0.000000 0.000000 1.000000 1.000000 1.000000
74 1 76.794271 41.075393 76.794271 41.075393 0.000000 0.000000 1.000000 1.000000 1.000000
75 1 59.903301 9.839154 59.903301 9.839154 -0.000000 -0.000000 1.000000 1.000000 1.000000
76 1 83.285880 32.727690 83.285880 266.935316 -0.000000 -0.000000 1.000000 1.000000 1.000000
77 1 125.442974 18.474981 125.442974 18.474981 0.000000 0.000000 1.000000 1.000000 1.000000
78 1 5.039537 125.666623 5.039537 125.666623 0.000000 -0.000000 1.000000 1.000000 1.000000
79 1 85.922267 188.870814 85.922267 188.870814 -0.000000 0.000000 1.000000 1.000000 1.000000
80 1 229.184278 118.948047 229.184278 118.948047 0.000000 0.000000 1.000000 1.000000 1.000000
81 1 227.045215 44.357460 227.045215 44.357460 -0.000000 -0.000000 1.000000 1.000000 1.000000
82 1 100.538874 169.439320 100.538874 169.439320 0.000000 -0.000000 1.000000 1.000000 1.000000
83 1 148.878614 174.493016 148.878614 174.493016 0.000000 0.000000 1.000000 1.000000 1.000000
84 1 153.287781 154.234614 153.287781 154.234614 -0.000000 0.000000 1.000000 1.000000 1.000000
85 1 203.030492 25.147699 -31.177134 25.147699 0.000000 -0.000000 1.000000 1.000000 1.000000
86 1 96.889010 42.828631 96.889010 42.828631 -0.000000 0.000000 1.000000 1.000000 1.000000
87 1 156.760947 125.347720 156.760947 125.347720 0.000000 -0.000000 1.000000 1.000000 1.000000
88 1 197.839226 143.305106 197.839226 143.305106 0.000000 -0.000000 1.000000 1.000000 1.000000
89 1 214.398534 25.971290 214.398534 260.178916 -0.000000 0.000000 1.000000 1.000000 1.000000
90 1 29.461051 17.200281 29.461051 17.200281 0.000000 -0.000000 1.000000 1.000000 1.000000
91 1 204.840465 11.301579 -29.367161 11.301579 -0.000000 -0.000000 1.000000 1.000000 1.000000
92 1 212.164603 59.269364 -22.043023 59.269364 0.000000 0.000000 1.000000 1.000000 1.000000
93 1 17.373666 205.218065 251.581292 205.218065 0.000000 0.000000 1.000000 1.000000 1.000000
94 1 4.549268 54.008707 4.549268 54.008707 -0.000000 -0.000000 1.000000 1.000000 1.000000
95 1 1.674061 95.863330 235.881687 95.863330 0.000000 0.000000 1.000000 1.000000 1.000000
96 1 211.829621 9.409146 211.829621 9.409146 -0.000000 0.000000 1.000000 1.000000 1.000000
97 1 190.034085 126.348666 190.034085 126.348666 -0.000000 -0.000000 1.000000 1.000000 1.000000
98 1 67.557208 35.143613 67.557208 35.143613 0.000000 -0.000000 1.000000 1.000000 1.000000
99 1 132.649639 125.785234 132.649639 125.785234 0.000000 -0.000000 1.000000 1.000000 1.000000
100 1 43.783749 54.880638 43.783749 54.880638 -0.000000 0.000000 1.000000 1.000000 1.000000
101 1 149.510572 148.192299 149.510572 148.192299 0.000000 -0.000000 1.000000 1.000000 1.000000
102 1 149.797643 170.724084 149.797643 170.724084 0.000000 0.000000 1.000000 1.000000 1.000000
103 1 20.199235 85.690415 254.406861 85.690415 0.000000 0.000000 1.000000 1.000000 1.000000
104 1 74.966362 32.133991 74.966362 32.133991 0.000000 0.000000 1.000000 1.000000 1.000000
105 1 146.287230 55.249676 146.287230 55.249676 0.000000 -0.000000 1.000000 1.000000 1.000000
106 1 233.138997 163.757730 -1.068629 163.757730 -0.000000 -0.000000 1.000000 1.000000 1.000000
107 1 70.794832 210.617313 70.794832 210.617313 0.000000 -0.000000 1.000000 1.000000 1.000000
108 1 230.251398 127.599851 230.251398 127.599851 0.000000 0.000000 1.000000 1.000000 1.000000
109 1 85.560242 125.185642 85.560242 125.185642 0.000000 0.000000 1.000000 1.000000 1.000000
110 1 136.644378 99.138024 136.644378 99.138024 0.000000 0.000000 1.000000 1.000000 1.000000
111 1 49.089125 175.214369 49.089125 175.214369 -0.000000 0.000000 1.000000 1.000000 1.000000
112 1 228.891598 230.648173 228.891598 230.648173 -0.000000 -0.000000 1.000000 1.000000 1.000000
113 1 60.563819 226.735374 60.563819 226.735374 -0.000000 0.000000 1.000000 1.000000 1.000000
114 1 42.414239 196.701810 42.414239 196.701810 -0.000000 -0.000000 1.000000 1.000000 1.000000
115 1 188.245618 96.446910 188.245618 96.446910 0.000000 -0.000000 1.000000 1.000000 1.000000
116 1 85.184175 101.642588 85.184175 101.642588 -0.000000 -0.000000 1.000000 1.000000 1.000000
117 1 226.025402 208.555916 226.025402 208.555916 0.000000 -0.000000 1.000000 1.000000 1.000000
118 1 172.221782 143.334034 172.221782 143.334034 -0.000000 -0.000000 1.000000 1.000000 1.000000
119 1 16.717000 161.785301 250.924626 161.785301 0.000000 -0.000000 1.000000 1.000000 1.000000
120 1 18.628738 139.467123 18.628738 139.467123 0.000000 0.000000 1.000000 1.000000 1.000000
121 1 94.473750 155.863089 94.473750 155.863089 -0.000000 -0.000000 1.000000 1.000000 1.000000
122 1 4.012484 147.585538 4.012484 147.585538 0.000000 -0.000000 1.000000 1.000000 1.000000
123 1 43.349538 200.170379 43.349538 200.170379 -0.000000 0.000000 1.000000 1.000000 1.000000
124 1 131.642013 133.938946 131.642013 133.938946 -0.000000 -0.000000 1.000000 1.000000 1.000000
125 1 58.519225 225.885345 58.519225 225.885345 -0.000000 -0.000000 1.000000 1.000000 1.000000
126 1 218.462316 78.205477 218.462316 78.205477 0.000000 0.000000 1.000000 1.000000 1.000000
127 1 3.473760 207.018133 237.681386 207.018133 -0.000000 -0.000000 1.000000 1.000000 1.000000
128 1 99.568009 74.316716 99.568009 74.316716 -0.000000 -0.000000 1.000000 1.000000 1.000000
129 1 50.949161 74.351525 50.949161 74.351525 0.000000 0.000000 1.000000 1.000000 1.000000
130 1 188.563389 155.573333 188.563389 155.573333 -0.000000 -0.000000 1.000000 1.000000 1.000000
131 1 36.430435 23.830021 36.430435 23.830021 0.000000 -0.000000 1.000000 1.000000 1.000000
132 1 161.508383 152.450683 161.508383 152.450683 -0.000000 -0.000000 1.000000 1.000000 1.000000
133 1 142.300808 57.082083 142.300808 57.082083 -0.000000 -0.000000 1.000000 1.000000 1.000000
134 1 197.524677 14.154149 197.524677 14.154149 -0.000000 -0.000000 1.000000 1.000000 1.000000
135 1 33.214344 99.172922 33.214344 99.172922 -0.000000 -0.000000 1.000000 1.000000 1.000000
136 1 124.475160 95.980046 124.475160 95.980046 0.000000 -0.000000 1.000000 1.000000 1.000000
137 1 13.947203 119.201860 13.947203 119.201860 -0.000000 -0.000000 1.000000 1.000000 1.000000
138 1 89.049453 181.686647 89.049453 181.686647 -0.000000 0.000000 1.000000 1.000000 1.000000
139 1 226.512008 14.291899 -7.695618 14.291899 -0.000000 0.000000 1.000000 1.000000 1.000000
140 1 75.647287 132.625441 75.647287 132.625441 0.000000 0.000000 1.000000 1.000000 1.000000
141 1 187.246292 33.889271 187.246292 33.889271 0.000000 0.000000 1.000000 1.000000 1.000000
142 1 73.610199 44.058728 73.610199 44.058728 -0.000000 0.000000 1.000000 1.000000 1.000000
143 1 87.939395 69.576092 87.939395 69.576092 0.000000 0.000000 1.000000 1.000000 1.000000
144 1 51.930529 208.958120 51.930529 208.958120 -0.000000 0.000000 1.000000 1.000000 1.000000
145 1 95.870659 68.079944 95.870659 68.079944 0.000000 -0.000000 1.000000 1.000000 1.000000
146 1 185.348445 48.208643 185.348445 48.208643 0.000000 0.000000 1.000000 1.000000 1.000000
147 1 202.023819 145.492635 202.023819 145.492635 -0.000000 0.000000 1.000000 1.000000 1.000000
148 1 62.773275 221.695488 62.773275 -12.512138 -0.000000 0.000000 1.000000 1.000000 1.000000
149 1 129.178986 229.839800 129.178986 -4.367826 -0.000000 -0.000000 1.000000 1.000000 1.000000
150 1 125.438722 151.604939 125.438722 151.604939 -0.000000 -0.000000 1.000000 1.000000 1.000000
151 1 19.096873 28.439246 19.096873 28.439246 -0.000000 0.000000 1.000000 1.000000 1.000000
152 1 163.766541 199.927321 163.766541 199.927321 -0.000000 0.000000 1.000000 1.000000 1.000000
153 1 210.328685 39.395214 210.328685 39.395214 0.000000 -0.000000 1.000000 1.000000 1.000000
154 1 56.966817 133.647658 56.966817 133.647658 0.000000 -0.000000 1.000000 1.000000 1.000000
155 1 187.075174 124.521562 187.075174 124.521562 0.000000 -0.000000 1.000000 1.000000 1.000000
156 1 51.829599 155.715515 286.037225 155.715515 -0.000000 0.000000 1.000000 1.000000 1.000000
157 1 200.013257 0.224531 200.013257 234.432157 -0.000000 -0.000000 1.000000 1.000000 1.000000
158 1 6.629268 88.345281 6.629268 88.345281 -0.000000 -0.000000 1.000000 1.000000 1.000000
159 1 168.553990 200.588637 168.553990 200.588637 0.000000 -0.000000 1.000000 1.000000 1.000000
160 1 124.298272 87.180951 124.298272 87.180951 -0.000000 -0.000000 1.000000 1.000000 1.000000
161 1 13.962986 29.244190 13.962986 29.244190 0.000000 -0.000000 1.000000 1.000000 1.000000
162 1 156.157608 222.977183 156.157608 222.977183 -0.000000 -0.000000 1.000000 1.000000 1.000000
163 1 104.735773 63.684762 104.735773 63.684762 0.000000 0.000000 1.000000 1.000000 1.000000
164 1 131.342726 169.661562 131.342726 169.661562 0.000000 0.000000 1.000000 1.000000 1.000000
165 1 41.934923 93.621772 41.934923 93.621772 -0.000000 0.000000 1.000000 1.000000 1.000000
166 1 221.203766 105.034530 221.203766 105.034530 0.000000 0.000000 1.000000 1.000000 1.000000
167 1 174.555411 133.696574 174.555411 133.696574 -0.000000 0.000000 1.000000 1.000000 1.000000
168 1 65.178468 83.567869 65.178468 83.567869 0.000000 -0.000000 1.000000 1.000000 1.000000
169 1 80.122232 137.306699 80.122232 137.306699 0.000000 0.000000 1.000000 1.000000 1.000000
170 1 58.791915 223.301806 58.791915 223.301806 -0.000000 0.000000 1.000000 1.000000 1.000000
171 1 10.364971 215.543499 10.364971 215.543499 -0.000000 0.000000 1.000000 1.000000 1.000000
172 1 120.048244 73.212970 120.048244 73.212970 -0.000000 0.000000 1.000000 1.000000 1.000000
173 1 43.838269 32.913829 43.838269 32.913829 0.000000 0.000000 1.000000 1.000000 1.000000
174 1 137.445152 91.671009 137.445152 91.671009 0.000000 -0.000000 1.000000 1.000000 1.000000
175 1 197.626669 225.699872 197.626669 225.699872 0.000000 0.000000 1.000000 1.000000 1.000000
176 1 104.356012 227.256514 104.356012 227.256514 -0.000000 0.000000 1.000000 1.000000 1.000000
177 1 71.349690 17.864248 71.349690 252.071874 0.000000 0.000000 1.000000 1.000000 1.000000
178 1 170.331541 37.288897 170.331541 37.288897 -0.000000 0.000000 1.000000 1.000000 1.000000
179 1 167.534000 111.775140 167.534000 111.775140 -0.000000 -0.000000 1.000000 1.000000 1.000000
180 1 213.899514 122.748699 213.899514 122.748699 0.000000 -0.000000 1.000000 1.000000 1.000000
181 1 130.109571 113.693078 130.109571 113.693078 -0.000000 0.000000 1.000000 1.000000 1.000000
182 1 67.926621 194.911817 67.926621 194.911817 0.000000 0.000000 1.000000 1.000000 1.000000
183 1 124.467900 106.854931 124.467900 106.854931 0.000000 -0.000000 1.000000 1.000000 1.000000
184 1 16.628766 58.227302 16.628766 58.227302 -0.000000 0.000000 1.000000 1.000000 1.000000
185 1 98.487328 144.367789 98.487328 144.367789 -0.000000 -0.000000 1.000000 1.000000 1.000000
186 1 138.116751 224.664812 138.116751 224.664812 0.000000 -0.000000 1.000000 1.000000 1.000000
187 1 129.078436 223.819057 129.078436 223.819057 -0.000000 -0.000000 1.000000 1.000000 1.000000
188 1 100.264984 30.012027 100.264984 264.219653 -0.000000 0.000000 1.000000 1.000000 1.000000
189 1 165.253822 147.150903 165.253822 147.150903 0.000000 -0.000000 1.000000 1.000000 1.000000
190 1 208.713084 118.961638 208.713084 118.961638 -0.000000 -0.000000 1.000000 1.000000 1.000000
191 1 18.916318 62.758401 18.916318 62.758401 -0.000000 0.000000 1.000000 1.000000 1.000000
192 1 171.844650 117.330016 171.844650 117.330016 -0.000000 -0.000000 1.000000 1.000000 1.000000
193 1 116.858972 55.158384 116.858972 55.158384 0.000000 0.000000 1.000000 1.000000 1.000000
194 1 196.667003 86.067859 -37.540623 86.067859 0.000000 0.000000 1.000000 1.000000 1.000000
195 1 116.443503 33.943699 116.443503 33.943699 0.000000 -0.000000 1.000000 1.000000 1.000000
196 1 232.333394 209.261817 -1.874232 209.261817 0.000000 -0.000000 1.000000 1.000000 1.000000
197 1 161.055481 130.565006 161.055481 130.565006 -0.000000 0.000000 1.000000 1.000000 1.000000
198 1 144.704928 79.736452 144.704928 79.736452 0.000000 0.000000 1.000000 1.000000 1.000000
199 1 3.157317 70.821449 3.157317 70.821449 0.000000 0.000000 1.000000 1.000000 1.000000
200 1 188.517984 188.693632 188.517984 188.693632 -0.000000 0.000000 1.000000 1.000000 1.000000
201 1 40.535377 48.676480 40.535377 48.676480 -0.000000 -0.000000 1.000000 1.000000 1.000000
202 1 225.373688 12.326743 -8.833938 12.326743 0.000000 -0.000000 1.000000 1.000000 1.000000
203 1 104.033310 29.982536 104.033310 264.190162 0.000000 0.000000 1.000000 1.000000 1.000000
204 1 163.589245 207.343073 163.589245 207.343073 0.000000 0.000000 1.000000 1.000000 1.000000
205 1 145.291236 198.255667 145.291236 198.255667 -0.000000 0.000000 1.000000 1.000000 1.000000
206 1 77.188157 13.778346 77.188157 13.778346 -0.000000 -0.000000 1.000000 1.000000 1.000000
207 1 81.260306 119.689256 81.260306 119.689256 -0.000000 -0.000000 1.000000 1.000000 1.000000
208 1 157.018934 117.229305 157.018934 117.229305 0.000000 0.000000 1.000000 1.000000 1.000000
209 1 149.938084 48.142498 149.938084 48.142498 0.000000 -0.000000 1.000000 1.000000 1.000000
210 1 142.633880 111.332133 142.633880 111.332133 -0.000000 -0.000000 1.000000 1.000000 1.000000
211 1 152.664116 213.447362 152.664116 213.447362 0.000000 0.000000 1.000000 1.000000 1.000000
212 1 73.917540 56.997433 73.917540 56.997433 0.000000 0.000000 1.000000 1.000000 1.000000
213 1 31.262740 217.117975 31.262740 217.117975 -0.000000 -0.000000 1.000000 1.000000 1.000000
214 1 5.870311 148.853010 240.077937 148.853010 0.000000 0.000000 1.000000 1.000000 1.000000
215 1 58.821056 33.351000 58.821056 33.351000 0.000000 0.000000 1.000000 1.000000 1.000000
216 1 60.543774 107.599606 60.543774 107.599606 -0.000000 0.000000 1.000000 1.000000 1.000000
217 1 74.792677 11.454093 74.792677 11.454093 -0.000000 -0.000000 1.000000 1.000000 1.000000
218 1 56.300053 5.818860 56.300053 5.818860 0.000000 -0.000000 1.000000 1.000000 1.000000
219 1 184.027061 124.926020 184.027061 124.926020 -0.000000 -0.000000 1.000000 1.000000 1.000000
220 1 191.845284 23.840863 191.845284 23.840863 0.000000 -0.000000 1.000000 1.000000 1.000000
221 1 225.998172 29.288776 -8.209454 29.288776 -0.000000 0.000000 1.000000 1.000000 1.000000
222 1 68.435273 209.624973 68.435273 209.624973 0.000000 0.000000 1.000000 1.000000 1.000000
223 1 147.568244 124.044310 147.568244 124.044310 0.000000 0.000000 1.000000 1.000000 1.000000
224 1 221.750436 4.684061 221.750436 238.891687 0.000000 -0.000000 1.000000 1.000000 1.000000
225 1 40.450062 182.461122 40.450062 182.461122 -0.000000 -0.000000 1.000000 1.000000 1.000000
226 1 100.854363 100.813635 100.854363 100.813635 -0.000000 0.000000 1.000000 1.000000 1.000000
227 1 196.183014 233.004359 196.183014 233.004359 -0.000000 0.000000 1.000000 1.000000 1.000000
228 1 76.819467 65.312348 76.819467 65.312348 -0.000000 0.000000 1.000000 1.000000 1.000000
229 1 14.051272 161.179424 14.051272 161.179424 0.000000 0.000000 1.000000 1.000000 1.000000
230 1 131.974804 219.424755 131.974804 219.424755 0.000000 -0.000000 1.000000 1.000000 1.000000
231 1 124.479745 76.230347 124.479745 76.230347 0.000000 -0.000000 1.000000 1.000000 1.000000
232 1 148.869641 121.759668 148.869641 121.759668 0.000000 -0.000000 1.000000 1.000000 1.000000
233 1 226.310513 34.575534 226.310513 34.575534 0.000000 -0.000000 1.000000 1.000000 1.000000
234 1 63.216710 228.106913 63.216710 228.106913 -0.000000 -0.000000 1.000000 1.000000 1.000000
235 1 6.191550 202.470398 240.399176 202.470398 -0.000000 -0.000000 1.000000 1.000000 1.000000
236 1 166.685346 168.692861 166.685346 168.692861 -0.000000 0.000000 1.000000 1.000000 1.000000
237 1 91.381639 193.057366 91.381639 193.057366 -0.000000 -0.000000 1.000000 1.000000 1.000000
238 1 193.595814 127.334857 193.595814 127.334857 0.000000 -0.000000 1.000000 1.000000 1.000000
239 1 104.090811 123.010929 104.090811 123.010929 -0.000000 0.000000 1.000000 1.000000 1.000000
240 1 115.827164 205.452122 115.827164 205.452122 0.000000 0.000000 1.000000 1.000000 1.000000
241 1 200.319752 42.515159 200.319752 42.515159 0.000000 0.000000 1.000000 1.000000 1.000000
242 1 171.723002 114.184258 171.723002 114.184258 -0.000000 0.000000 1.000000 1.000000 1.000000
243 1 13.330917 137.225741 247.538543 137.225741 0.000000 -0.000000 1.000000 1.000000 1.000000
244 1 65.040295 200.149397 65.040295 200.149397 -0.000000 0.000000 1.000000 1.000000 1.000000
245 1 74.067641 89.496706 74.067641 89.496706 -0.000000 -0.000000 1.000000 1.000000 1.000000
246 1 95.207266 12.385288 95.207266 12.385288 -0.000000 -0.000000 1.000000 1.000000 1.000000
247 1 65.511788 35.723166 65.511788 35.723166 0.000000 0.000000 1.000000 1.000000 1.000000
248 1 188.957812 141.614014 188.957812 141.614014 -0.000000 0.000000 1.000000 1.000000 1.000000
249 1 2.410569 91.694974 236.618195 91.694974 -0.000000 -0.000000 1.000000 1.000000 1.000000
250 1 66.596179 26.654575 66.596179 26.654575 -0.000000 -0.000000 1.000000 1.000000 1.000000
251 1 194.958922 125.405062 194.958922 125.405062 -0.000000 0.000000 1.000000 1.000000 1.000000
252 1 175.526773 42.128930 175.526773 42.128930 -0.000000 -0.000000 1.000000 1.000000 1.000000
253 1 1.842883 23.233823 1.842883 23.233823 -0.000000 0.000000 1.000000 1.000000 1.000000
254 1 137.104309 196.585008 137.104309 196.585008 -0.000000 0.000000 1.000000 1.000000 1.000000
255 1 146.374759 136.778047 146.374759 136.778047 -0.000000 -0.000000 1.000000 1.000000 1.000000
256 1 119.629789 5.768262 119.629789 239.975888 0.000000 0.000000 1.000000 1.000000 1.000000
257 1 16.734282 49.273978 16.734282 49.273978 -0.000000 0.000000 1.000000 1.000000 1.000000
258 1 133.879077 123.246301 133.879077 123.246301 -0.000000 -0.000000 1.000000 1.000000 1.000000
259 1 93.947092 224.506899 93.947092 224.506899 -0.000000 0.000000 1.000000 1.000000 1.000000
260 1 108.918130 132.948971 108.918130 132.948971 -0.000000 0.000000 1.000000 1.000000 1.000000
261 1 157.883716 106.199789 157.883716 106.199789 -0.000000 0.000000 1.000000 1.000000 1.000000
262 1 77.614040 121.159234 77.614040 121.159234 -0.000000 0.000000 1.000000 1.000000 1.000000
263 1 15.475864 17.174037 15.475864 17.174037 0.000000 -0.000000 1.000000 1.000000 1.000000
264 1 36.296640 53.167609 36.296640 53.167609 0.000000 -0.000000 1.000000 1.000000 1.000000
265 1 28.656799 83.459862 28.656799 83.459862 0.000000 0.000000 1.000000 1.000000 1.000000
266 1 38.621716 230.855380 38.621716 -3.352246 0.000000 -0.000000 1.000000 1.000000 1.000000
267 1 142.116244 63.094836 142.116244 63.094836 -0.000000 0.000000 1.000000 1.000000 1.000000
268 1 9.284656 37.363339 9.284656 37.363339 0.000000 0.000000 1.000000 1.000000 1.000000
269 1 134.879373 194.695264 134.879373 194.695264 0.000000 0.000000 1.000000 1.000000 1.000000
270 1 5.387789 64.243070 239.595415 64.243070 0.000000 0.000000 1.000000 1.000000 1.000000
271 1 146.158026 112.114329 146.158026 112.114329 -0.000000 -0.000000 1.000000 1.000000 1.000000
272 1 157.404054 59.531371 157.404054 59.531371 0.000000 0.000000 1.000000 1.000000 1.000000
273 1 88.088624 168.375332 88.088624 168.375332 -0.000000 -0.000000 1.000000 1.000000 1.000000
274 1 131.464664 4.951932 131.464664 239.159558 -0.000000 0.000000 1.000000 1.000000 1.000000
275 1 199.173845 78.338008 199.173845 78.338008 -0.000000 0.000000 1.000000 1.000000 1.000000
276 1 14.388384 196.414981 14.388384 196.414981 0.000000 0.000000 1.000000 1.000000 1.000000
277 1 107.234541 69.918635 107.234541 69.918635 0.000000 -0.000000 1.000000 1.000000 1.000000
278 1 182.967565 194.684573 182.967565 194.684573 0.000000 -0.000000 1.000000 1.000000 1.000000
279 1 71.317456 206.482333 71.317456 206.482333 -0.000000 -0.000000 1.000000 1.000000 1.000000
280 1 63.085243 77.613704 63.085243 77.613704 0.000000 -0.000000 1.000000 1.000000 1.000000
281 1 222.145527 142.613050 -12.062099 142.613050 -0.000000 -0.000000 1.000000 1.000000 1.000000
282 1 30.771981 203.637842 30.771981 203.637842 0.000000 -0.000000 1.000000 1.000000 1.000000
283 1 111.917647 117.561925 111.917647 117.561925 0.000000 -0.000000 1.000000 1.000000 1.000000
284 1 218.766116 56.612530 -15.441510 56.612530 0.000000 0.000000 1.000000 1.000000 1.000000
285 1 64.473881 128.274821 64.473881 128.274821 -0.000000 -0.000000 1.000000 1.000000 1.000000
286 1 95.348128 210.880764 95.348128 210.880764 -0.000000 0.000000 1.000000 1.000000 1.000000
287 1 169.792971 116.394361 169.792971 116.394361 0.000000 -0.000000 1.000000 1.000000 1.000000
288 1 70.926935 157.028972 70.926935 157.028972 0.000000 0.000000 1.000000 1.000000 1.000000
289 1 162.459451 185.509763 162.459451 185.509763 0.000000 0.000000 1.000000 1.000000 1.000000
290 1 68.403057 165.894634 68.403057 165.894634 0.000000 -0.000000 1.000000 1.000000 1.000000
291 1 100.691510 160.539047 100.691510 160.539047 -0.000000 0.000000 1.000000 1.000000 1.000000
292 1 50.896412 233.729697 50.896412 233.729697 -0.000000 0.000000 1.000000 1.000000 1.000000
293 1 46.850860 228.747724 46.850860 228.747724 -0.000000 -0.000000 1.000000 1.000000 1.000000
294 1 155.245338 174.003920 155.245338 174.003920 0.000000 0.000000 1.000000 1.000000 1.000000
295 1 47.783641 112.118478 47.783641 112.118478 -0.000000 0.000000 1.000000 1.000000 1.000000
296 1 94.852009 197.110337 94.852009 197.110337 0.000000 -0.000000 1.000000 1.000000 1.000000
297 1 86.072235 49.282981 86.072235 49.282981 -0.000000 0.000000 1.000000 1.000000 1.000000
298 1 98.096430 28.980851 98.096430 28.980851 0.000000 0.000000 1.000000 1.000000 1.000000
299 1 66.746994 188.413474 66.746994 188.413474 -0.000000 0.000000 1.000000 1.000000 1.000000
300 1 27.573491 188.603868 27.573491 188.603868 -0.000000 -0.000000 1.000000 1.000000 1.000000
301 1 30.779737 124.115671 30.779737 124.115671 0.000000 0.000000 1.000000 1.000000 1.000000
302 1 154.324795 23.717274 154.324795 23.717274 0.000000 0.000000 1.000000 1.000000 1.000000
303 1 233.669261 81.695601 233.669261 81.695601 -0.000000 -0.000000 1.000000 1.000000 1.000000
304 1 211.604711 119.111910 211.604711 119.111910 0.000000 -0.000000 1.000000 1.000000 1.000000
305 1 47.349309 94.061845 47.349309 94.061845 0.000000 0.000000 1.000000 1.000000 1.000000
306 1 179.027428 10.731995 179.027428 10.731995 0.000000 0.000000 1.000000 1.000000 1.000000
307 1 87.056950 58.318557 87.056950 58.318557 0.000000 0.000000 1.000000 1.000000 1.000000
308 1 135.423539 102.803576 135.423539 102.803576 0.000000 0.000000 1.000000 1.000000 1.000000
309 1 117.458733 59.090162 117.458733 59.090162 0.000000 0.000000 1.000000 1.000000 1.000000
310 1 118.298180 139.019881 118.298180 139.019881 0.000000 -0.000000 1.000000 1.000000 1.000000
311 1 59.269973 79.254478 59.269973 79.254478 -0.000000 0.000000 1.000000 1.000000 1.000000
312 1 218.406692 221.392049 218.406692 221.392049 0.000000 -0.000000 1.000000 1.000000 1.000000
313 1 3.418184 165.103973 237.625810 165.103973 -0.000000 0.000000 1.000000 1.000000 1.000000
314 1 112.331645 149.284245 112.331645 149.284245 -0.000000 0.000000 1.000000 1.000000 1.000000
315 1 135.139176 110.972930 135.139176 110.972930 0.000000 -0.000000 1.000000 1.000000 1.000000
316 1 189.586276 196.527557 -44.621350 196.527557 -0.000000 0.000000 1.000000 1.000000 1.000000