ITEM: TIMESTEP
1400.000000
ITEM: NUMBER OF ATOMS
5000
ITEM: BOX BOUNDS xy xz yz
0 240.660829 0
0 240.660829 0
0 2 0
ITEM: ATOMS id type x y xu yu vx vy radius m z
0 1 196.073407 146.006641 196.073407 146.006641 -0.000000 0.000000 1.000000 1.000000 1.000000
1 1 39.084732 21.419510 39.084732 21.419510 -0.000000 -0.000000 1.000000 1.000000 1.000000
2 1 69.697366 108.051203 69.697366 108.051203 -0.000000 0.000000 1.000000 1.000000 1.000000
3 1 161.013402 141.186286 161.013402 141.186286 0.000000 -0.000000 1.000000 1.000000 1.000000
4 1 85.683636 217.647196 85.683636 217.647196 -0.000000 -0.000000 1.000000 1.000000 1.000000
5 1 225.233542 166.777306 225.233542 166.777306 -0.000000 -0.000000 1.000000 1.000000 1.000000
6 1 128.322186 166.884200 128.322186 166.884200 0.000000 0.000000 1.000000 1.000000 1.000000
7 1 187.493285 73.774738 187.493285 73.774738 -0.000000 0.000000 1.000000 1.000000 1.000000
8 1 57.114020 20.542978 57.114020 20.542978 0.000000 0.000000 1.000000 1.000000 1.000000
9 1 8.525972 237.282878 8.525972 237.282878 0.000000 0.000000 1.000000 1.000000 1.000000
10 1 114.771904 71.361008 114.771904 71.361008 -0.000000 0.000000 1.000000 1.000000 1.000000
11 1 16.830964 12.419880 16.830964 12.419880 -0.000000 0.000000 1.000000 1.000000 1.000000
12 1 85.577726 48.666688 85.577726 48.666688 -0.000000 0.000000 1.000000 1.000000 1.000000
13 1 151.654549 6.227656 151.654549 6.227656 -0.000000 -0.000000 1.000000 1.000000 1.000000
14 1 107.602301 1.598251 107.602301 242.259080 0.000000 -0.000000 1.000000 1.000000 1.000000
15 1 87.714652 158.277629 87.714652 158.277629 -0.000000 0.000000 1.000000 1.000000 1.000000
16 1 216.872754 178.514568 216.872754 178.514568 -0.000000 -0.000000 1.000000 1.000000 1.000000
17 1 100.962114 1.735329 100.962114 242.396158 -0.000000 0.000000 1.000000 1.000000 1.000000
18 1 207.402407 48.508269 207.402407 48.508269 0.000000 -0.000000 1.000000 1.000000 1.000000
19 1 20.286674 127.668398 20.286674 127.668398 0.000000 -0.000000 1.000000 1.000000 1.000000
20 1 119.494040 165.087985 119.494040 165.087985 0.000000 0.000000 1.000000 1.000000 1.000000
21 1 228.932447 113.853780 -11.728382 113.853780 0.000000 0.000000 1.000000 1.000000 1.000000
22 1 126.991834 20.499411 126.991834 20.499411 0.000000 0.000000 1.000000 1.000000 1.000000
23 1 85.483966 112.952147 85.483966 112.952147 0.000000 -0.000000 1.000000 1.000000 1.000000
24 1 22.365940 178.386101 22.365940 178.386101 0.000000 -0.000000 1.000000 1.000000 1.000000
25 1 145.565583 79.786805 145.565583 79.786805 -0.000000 0.000000 1.000000 1.000000 1.000000
26 1 63.106662 101.052220 63.106662 101.052220 -0.000000 0.000000 1.000000 1.000000 1.000000
27 1 167.617671 28.424942 167.617671 28.424942 -0.000000 0.000000 1.000000 1.000000 1.000000
28 1 233.313096 30.088503 233.313096 30.088503 -0.000000 0.000000 1.000000 1.000000 1.000000
29 1 51.155616 36.022594 51.155616 36.022594 0.000000 -0.000000 1.000000 1.000000 1.000000
30 1 124.767851 105.580297 124.767851 105.580297 0.000000 -0.000000 1.000000 1.000000 1.000000
31 1 132.806410 171.137135 132.806410 171.137135 -0.000000 0.000000 1.000000 1.000000 1.000000
32 1 183.882580 170.082188 183.882580 170.082188 0.000000 -0.000000 1.000000 1.000000 1.000000
33 1 151.515774 104.017192 151.515774 104.017192 0.000000 -0.000000 1.000000 1.000000 1.000000
34 1 59.932935 29.202417 59.932935 29.202417 0.000000 0.000000 1.000000 1.000000 1.000000
35 1 66.740136 137.817560 66.740136 137.817560 -0.000000 0.000000 1.000000 1.000000 1.000000
36 1 132.934727 45.879267 132.934727 45.879267 -0.000000 -0.000000 1.000000 1.000000 1.000000
37 1 104.110858 156.602245 104.110858 156.602245 0.000000 0.000000 1.000000 1.000000 1.000000
38 1 231.591558 9.094439 -9.069271 9.094439 -0.000000 -0.000000 1.000000 1.000000 1.000000
39 1 105.414589 240.194271 105.414589 -0.466558 0.000000 -0.000000 1.000000 1.000000 1.000000
40 1 89.295799 103.741130 89.295799 103.741130 -0.000000 -0.000000 1.000000 1.000000 1.000000
41 1 51.522720 75.267153 51.522720 75.267153 -0.000000 -0.000000 1.000000 1.000000 1.000000
42 1 212.298721 99.759737 212.298721 99.759737 -0.000000 0.000000 1.000000 1.000000 1.000000
43 1 24.774709 56.655686 24.774709 56.655686 0.000000 0.000000 1.000000 1.000000 1.000000
44 1 113.999594 205.867750 113.999594 205.867750 0.000000 0.000000 1.000000 1.000000 1.000000
45 1 62.361110 206.771986 62.361110 206.771986 -0.000000 -0.000000 1.000000 1.000000 1.000000
46 1 112.148131 116.766486 112.148131 116.766486 -0.000000 -0.000000 1.000000 1.000000 1.000000
47 1 99.028272 6.321582 99.028272 6.321582 -0.000000 0.000000 1.000000 1.000000 1.000000
48 1 209.446905 173.231448 209.446905 173.231448 -0.000000 0.000000 1.000000 1.000000 1.000000
49 1 53.981879 46.829427 53.981879 46.829427 -0.000000 -0.000000 1.000000 1.000000 1.000000
50 1 36.851924 98.186090 36.851924 98.186090 -0.000000 -0.000000 1.000000 1.000000 1.000000
51 1 27.215462 55.009133 27.215462 55.009133 -0.000000 0.000000 1.000000 1.000000 1.000000
52 1 52.604857 108.068655 52.604857 108.068655 -0.000000 -0.000000 1.000000 1.000000 1.000000
53 1 49.264394 188.500062 49.264394 188.500062 0.000000 0.000000 1.000000 1.000000 1.000000
54 1 200.381338 224.268111 200.381338 224.268111 0.000000 -0.000000 1.000000 1.000000 1.000000
55 1 140.475518 119.083311 140.475518 119.083311 0.000000 0.000000 1.000000 1.000000 1.000000
56 1 234.858982 193.647745 -5.801847 193.647745 0.000000 -0.000000 1.000000 1.000000 1.000000
57 1 30.010582 73.099806 30.010582 73.099806 -0.000000 0.000000 1.000000 1.000000 1.000000
58 1 144.129544 12.300595 144.129544 12.300595 -0.000000 -0.000000 1.000000 1.000000 1.000000
59 1 0.020212 23.866042 240.681041 23.866042 -0.000000 0.000000 1.000000 1.000000 1.000000
60 1 131.544412 95.618744 131.544412 95.618744 0.000000 -0.000000 1.000000 1.000000 1.000000
61 1 178.004928 131.236594 178.004928 131.236594 0.000000 0.000000 1.000000 1.000000 1.000000
62 1 38.357351 74.709577 38.357351 74.709577 -0.000000 0.000000 1.000000 1.000000 1.000000
63 1 152.950205 202.860593 152.950205 202.860593 0.000000 -0.000000 1.000000 1.000000 1.000000
64 1 0.821658 132.218606 241.482487 132.218606 0.000000 0.000000 1.000000 1.000000 1.000000
65 1 121.800917 10.173968 121.800917 10.173968 -0.000000 -0.000000 1.000000 1.000000 1.000000
66 1 113.477822 232.171497 113.477822 -8.489332 -0.000000 0.000000 1.000000 1.000000 1.000000
67 1 115.469898 200.110953 115.469898 200.110953 -0.000000 0.000000 1.000000 1.000000 1.000000
68 1 92.910809 6.400915 92.910809 6.400915 -0.000000 -0.000000 1.000000 1.000000 1.000000
69 1 137.056351 225.875957 137.056351 225.875957 0.000000 -0.000000 1.000000 1.000000 1.000000
70 1 79.993161 101.650958 79.993161 101.650958 -0.000000 0.000000 1.000000 1.000000 1.000000
71 1 171.065120 120.130532 171.065120 120.130532 0.000000 0.000000 1.000000 1.000000 1.000000
72 1 117.027569 163.580105 117.027569 163.580105 0.000000 -0.000000 1.000000 1.000000 1.000000
73 1 183.097400 220.467021 183.097400 220.467021 -0.000000 -0.000000 1.000000 1.000000 1.000000
74 1 32.825282 169.724850 32.825282 169.724850 0.000000 -0.000000 1.000000 1.000000 1.000000
75 1 78.788875 227.087993 78.788875 227.087993 0.000000 -0.000000 1.000000 1.000000 1.000000
76 1 22.046418 3.942644 22.046418 3.942644 0.000000 -0.000000 1.000000 1.000000 1.000000
77 1 28.236247 63.947081 28.236247 63.947081 0.000000 0.000000 1.000000 1.000000 1.000000
78 1 127.274425 238.878172 127.274425 -1.782657 0.000000 -0.000000 1.000000 1.000000 1.000000
79 1 231.985400 228.631683 231.985400 -12.029146 0.000000 -0.000000 1.000000 1.000000 1.000000
80 1 160.857435 76.913385 160.857435 76.913385 -0.000000 -0.000000 1.000000 1.000000 1.000000
81 1 236.518273 80.214691 236.518273 80.214691 0.000000 -0.000000 1.000000 1.000000 1.000000
82 1 53.677117 132.211253 53.677117 132.211253 -0.000000 0.000000 1.000000 1.000000 1.000000
83 1 226.065196 151.787060 226.065196 151.787060 0.000000 0.000000 1.000000 1.000000 1.000000
84 1 138.671959 191.433894 138.671959 191.433894 -0.000000 0.000000 1.000000 1.000000 1.000000
85 1 196.787234 191.106619 196.787234 191.106619 -0.000000 -0.000000 1.000000 1.000000 1.000000
86 1 66.134774 212.592747 66.134774 212.592747 -0.000000 -0.000000 1.000000 1.000000 1.000000
87 1 91.502842 195.653596 91.502842 195.653596 -0.000000 -0.000000 1.000000 1.000000 1.000000
88 1 126.023222 78.539291 126.023222 78.539291 -0.000000 0.000000 1.000000 1.000000 1.000000
89 1 70.308470 234.450885 70.308470 234.450885 -0.000000 0.000000 1.000000 1.000000 1.000000
90 1 139.650100 147.648108 139.650100 147.648108 -0.000000 -0.000000 1.000000 1.000000 1.000000
91 1 4.171991 154.194016 244.832820 154.194016 0.000000 -0.000000 1.000000 1.000000 1.000000
92 1 122.237977 222.762515 122.237977 222.762515 -0.000000 -0.000000 1.000000 1.000000 1.000000
93 1 217.447013 42.606501 217.447013 42.606501 0.000000 -0.000000 1.000000 1.000000 1.000000
94 1 160.699821 198.657683 160.699821 198.657683 0.000000 -0.000000 1.000000 1.000000 1.000000
95 1 104.033907 154.207651 104.033907 154.207651 -0.000000 0.000000 1.000000 1.000000 1.000000
96 1 107.962271 141.852970 107.962271 141.852970 0.000000 -0.000000 1.000000 1.000000 1.000000
97 1 217.540200 47.032428 217.540200 47.032428 0.000000 0.000000 1.000000 1.000000 1.000000
98 1 105.170975 76.676561 105.170975 76.676561 -0.000000 0.000000 1.000000 1.000000 1.000000
99 1 46.456134 106.634130 46.456134 106.634130 0.000000 0.000000 1.000000 1.000000 1.000000
100 1 78.941142 122.763786 78.941142 122.763786 0.000000 -0.000000 1.000000 1.000000 1.000000
101 1 105.703774 88.063203 105.703774 88.063203 0.000000 0.000000 1.000000 1.000000 1.000000
102 1 38.691613 124.026883 38.691613 124.026883 -0.000000 -0.000000 1.000000 1.000000 1.000000
103 1 43.045130 61.406336 43.045130 61.406336 -0.000000 0.000000 1.000000 1.000000 1.000000
104 1 53.621030 85.589371 53.621030 85.589371 0.000000 -0.000000 1.000000 1.000000 1.000000
105 1 13.427324 160.984845 13.427324 160.984845 -0.000000 0.000000 1.000000 1.000000 1.000000
106 1 154.161829 150.503945 154.161829 150.503945 0.000000 -0.000000 1.000000 1.000000 1.000000
107 1 230.039593 160.465743 230.039593 160.465743 0.000000 0.000000 1.000000 1.000000 1.000000
108 1 64.248123 129.570025 64.248123 129.570025 -0.000000 0.000000 1.000000 1.000000 1.000000
109 1 51.845545 201.428251 51.845545 201.428251 0.000000 -0.000000 1.000000 1.000000 1.000000
110 1 96.692337 78.537755 96.692337 78.537755 0.000000 -0.000000 1.000000 1.000000 1.000000
111 1 151.651628 80.767081 151.651628 80.767081 -0.000000 0.000000 1.000000 1.000000 1.000000
112 1 192.133169 216.006370 192.133169 216.006370 0.000000 -0.000000 1.000000 1.000000 1.000000
113 1 175.260037 59.190262 175.260037 59.190262 0.000000 -0.000000 1.000000 1.000000 1.000000
114 1 144.430837 237.218743 144.430837 237.218743 0.000000 -0.000000 1.000000 1.000000 1.000000
115 1 0.592322 69.266655 0.592322 69.266655 -0.000000 -0.000000 1.000000 1.000000 1.000000
116 1 93.011603 153.863247 93.011603 153.863247 0.000000 -0.000000 1.000000 1.000000 1.000000
117 1 117.590638 201.122403 117.590638 201.122403 -0.000000 -0.000000 1.000000 1.000000 1.000000
118 1 171.286376 170.229864 171.286376 170.229864 -0.000000 0.000000 1.000000 1.000000 1.000000
119 1 199.067645 29.093734 199.067645 29.093734 -0.000000 -0.000000 1.000000 1.000000 1.000000
120 1 14.745855 183.498593 14.745855 183.498593 -0.000000 -0.000000 1.000000 1.000000 1.000000
121 1 167.911393 195.422355 167.911393 195.422355 -0.000000 0.000000 1.000000 1.000000 1.000000
122 1 82.468369 212.070363 82.468369 212.070363 -0.000000 0.000000 1.000000 1.000000 1.000000
123 1 172.188900 223.355542 172.188900 223.355542 0.000000 0.000000 1.000000 1.000000 1.000000
124 1 97.333660 57.126252 97.333660 57.126252 -0.000000 -0.000000 1.000000 1.000000 1.000000
125 1 195.206318 152.040841 195.206318 152.040841 -0.000000 0.000000 1.000000 1.000000 1.000000
126 1 50.744172 33.315161 50.744172 33.315161 0.000000 -0.000000 1.000000 1.000000 1.000000
127 1 125.203401 235.137268 125.203401 -5.523561 0.000000 -0.000000 1.000000 1.000000 1.000000
128 1 106.585958 64.607670 106.585958 64.607670 -0.000000 0.000000 1.000000 1.000000 1.000000
129 1 28.838963 115.833827 28.838963 115.833827 -0.000000 -0.000000 1.000000 1.000000 1.000000
130 1 91.856871 46.682384 91.856871 46.682384 -0.000000 -0.000000 1.000000 1.000000 1.000000
131 1 79.598854 216.111974 79.598854 216.111974 0.000000 0.000000 1.000000 1.000000 1.000000
132 1 7.319947 32.450588 247.980776 32.450588 0.000000 -0.000000 1.000000 1.000000 1.000000
133 1 175.739268 49.440619 175.739268 49.440619 -0.000000 -0.000000 1.000000 1.000000 1.000000
134 1 152.355657 75.693224 152.355657 75.693224 0.000000 -0.000000 1.000000 1.000000 1.000000
135 1 5.471127 158.988473 246.131956 158.988473 -0.000000 0.000000 1.000000 1.000000 1.000000
136 1 206.935570 200.570761 206.935570 200.570761 -0.000000 -0.000000 1.000000 1.000000 1.000000
137 1 25.502051 124.909569 25.502051 124.909569 0.000000 0.000000 1.000000 1.000000 1.000000
138 1 114.001500 87.972279 114.001500 87.972279 0.000000 0.000000 1.000000 1.000000 1.000000
139 1 130.687478 100.517708 130.687478 100.517708 -0.000000 0.000000 1.000000 1.000000 1.000000
140 1 183.091876 103.346775 183.091876 103.346775 0.000000 -0.000000 1.000000 1.000000 1.000000
141 1 39.020401 117.429210 39.020401 117.429210 -0.000000 0.000000 1.000000 1.000000 1.000000
142 1 102.648724 148.311558 102.648724 148.311558 0.000000 0.000000 1.000000 1.000000 1.000000
143 1 95.033412 149.845722 95.033412 149.845722 0.000000 0.000000 1.000000 1.000000 1.000000
144 1 117.459730 53.254615 117.459730 53.254615 -0.000000 -0.000000 1.000000 1.000000 1.000000
145 1 211.387799 122.940306 211.387799 122.940306 0.000000 0.000000 1.000000 1.000000 1.000000
146 1 232.120800 93.267097 232.120800 93.267097 0.000000 -0.000000 1.000000 1.000000 1.000000
147 1 220.041273 163.656047 220.041273 163.656047 0.000000 0.000000 1.000000 1.000000 1.000000
148 1 1.801334 140.252254 242.462163 140.252254 -0.000000 -0.000000 1.000000 1.000000 1.000000
149 1 44.301451 147.998259 44.301451 147.998259 0.000000 0.000000 1.000000 1.000000 1.000000
150 1 148.056467 29.138493 148.056467 29.138493 -0.000000 -0.000000 1.000000 1.000000 1.000000
151 1 108.402583 65.983326 108.402583 65.983326 0.000000 -0.000000 1.000000 1.000000 1.000000
152 1 197.061201 120.607958 197.061201 120.607958 0.000000 0.000000 1.000000 1.000000 1.000000
153 1 202.075071 166.892568 202.075071 166.892568 0.000000 0.000000 1.000000 1.000000 1.000000
154 1 213.461781 119.539660 213.461781 119.539660 0.000000 0.000000 1.000000 1.000000 1.000000
155 1 229.011374 190.770676 229.011374 190.770676 -0.000000 0.000000 1.000000 1.000000 1.000000
156 1 118.783309 154.204574 118.783309 154.204574 0.000000 -0.000000 1.000000 1.000000 1.000000
157 1 181.118465 233.130484 181.118465 -7.530345 0.000000 -0.000000 1.000000 1.000000 1.000000
158 1 155.446390 199.987697 155.446390 199.987697 -0.000000 -0.000000 1.000000 1.000000 1.000000
159 1 15.611357 60.609977 15.611357 60.609977 0.000000 0.000000 1.000000 1.000000 1.000000
160 1 150.453853 51.815896 150.453853 51.815896 0.000000 0.000000 1.000000 1.000000 1.000000
161 1 86.840031 30.949448 86.840031 30.949448 -0.000000 0.000000 1.000000 1.000000 1.000000
162 1 165.554523 30.155626 165.554523 30.155626 -0.000000 -0.000000 1.000000 1.000000 1.000000
163 1 185.764034 171.201966 185.764034 171.201966 0.000000 0.000000 1.000000 1.000000 1.000000
164 1 74.637023 134.254751 74.637023 134.254751 0.000000 -0.000000 1.000000 1.000000 1.000000
165 1 161.948610 5.323521 161.948610 245.984350 -0.000000 -0.000000 1.000000 1.000000 1.000000
166 1 20.595364 174.460568 20.595364 174.460568 -0.000000 -0.000000 1.000000 1.000000 1.000000
167 1 160.476038 59.834355 160.476038 59.834355 -0.000000 0.000000 1.000000 1.000000 1.000000
168 1 29.972955 26.082881 29.972955 26.082881 0.000000 0.000000 1.000000 1.000000 1.000000
169 1 184.806234 163.526991 184.806234 163.526991 -0.000000 0.000000 1.000000 1.000000 1.000000
170 1 72.949584 159.670337 72.949584 159.670337 0.000000 0.000000 1.000000 1.000000 1.000000
171 1 162.434489 45.779077 162.434489 45.779077 0.000000 -0.000000 1.000000 1.000000 1.000000
172 1 170.537641 42.045995 170.537641 42.045995 -0.000000 0.000000 1.000000 1.000000 1.000000
173 1 60.891105 201.322336 60.891105 201.322336 0.000000 -0.000000 1.000000 1.000000 1.000000
174 1 16.132108 208.214578 16.132108 208.214578 -0.000000 0.000000 1.000000 1.000000 1.000000
175 1 35.384035 52.370860 35.384035 52.370860 0.000000 -0.000000 1.000000 1.000000 1.000000
176 1 219.213698 94.775038 219.213698 94.775038 -0.000000 -0.000000 1.000000 1.000000 1.000000
177 1 234.750823 68.279765 234.750823 68.279765 0.000000 0.000000 1.000000 1.000000 1.000000
178 1 165.195016 40.714447 165.195016 40.714447 0.000000 0.000000 1.000000 1.000000 1.000000
179 1 88.690611 29.203989 88.690611 29.203989 0.000000 -0.000000 1.000000 1.000000 1.000000
180 1 16.698739 127.848548 16.698739 127.848548 0.000000 -0.000000 1.000000 1.000000 1.000000
181 1 230.345465 202.754311 230.345465 202.754311 -0.000000 0.000000 1.000000 1.000000 1.000000
182 1 41.879746 190.886760 41.879746 190.886760 -0.000000 0.000000 1.000000 1.000000 1.000000
183 1 44.077532 14.689928 44.077532 14.689928 0.000000 0.000000 1.000000 1.000000 1.000000
184 1 101.562697 112.756609 101.562697 112.756609 0.000000 0.000000 1.000000 1.000000 1.000000
185 1 180.908692 110.833528 180.908692 110.833528 0.000000 -0.000000 1.000000 1.000000 1.000000
186 1 193.620945 226.228122 193.620945 226.228122 0.000000 -0.000000 1.000000 1.000000 1.000000
187 1 77.997756 21.808472 77.997756 21.808472 0.000000 0.000000 1.000000 1.000000 1.000000
188 1 192.742870 237.343784 192.742870 237.343784 0.000000 -0.000000 1.000000 1.000000 1.000000
189 1 173.715897 134.762656 173.715897 134.762656 -0.000000 -0.000000 1.000000 1.000000 1.000000
190 1 53.389574 10.314935 53.389574 10.314935 0.000000 -0.000000 1.000000 1.000000 1.000000
191 1 151.756642 32.784992 151.756642 32.784992 0.000000 -0.000000 1.000000 1.000000 1.000000
192 1 173.267901 166.435448 173.267901 166.435448 0.000000 0.000000 1.000000 1.000000 1.000000
193 1 167.236583 55.747664 167.236583 55.747664 0.000000 0.000000 1.000000 1.000000 1.000000
194 1 66.968586 130.965454 66.968586 130.965454 0.000000 0.000000 1.000000 1.000000 1.000000
195 1 26.946030 173.568799 26.946030 173.568799 -0.000000 -0.000000 1.000000 1.000000 1.000000
196 1 105.479776 188.317176 105.479776 188.317176 -0.000000 0.000000 1.000000 1.000000 1.000000
197 1 148.839730 13.214875 148.839730 13.214875 -0.000000 -0.000000 1.000000 1.000000 1.000000
198 1 164.954412 175.420777 164.954412 175.420777 0.000000 0.000000 1.000000 1.000000 1.000000
199 1 97.212972 110.549833 97.212972 110.549833 -0.000000 -0.000000 1.000000 1.000000 1.000000
200 1 111.542839 189.254938 111.542839 189.254938 0.000000 0.000000 1.000000 1.000000 1.000000
201 1 19.436806 116.677215 19.436806 116.677215 -0.000000 -0.000000 1.000000 1.000000 1.000000
202 1 35.221445 110.795682 35.221445 110.795682 -0.000000 0.000000 1.000000 1.000000 1.000000
203 1 5.607787 140.736222 5.607787 140.736222 0.000000 0.000000 1.000000 1.000000 1.000000
204 1 131.043470 228.198516 131.043470 228.198516 0.000000 -0.000000 1.000000 1.000000 1.000000
205 1 109.424547 107.000499 109.424547 107.000499 -0.000000 0.000000 1.000000 1.000000 1.000000
206 1 23.444111 168.355057 23.444111 168.355057 -0.000000 -0.000000 1.000000 1.000000 1.000000
207 1 198.278481 10.934493 198.278481 10.934493 -0.000000 -0.000000 1.000000 1.000000 1.000000
208 1 112.058194 76.979871 112.058194 76.979871 -0.000000 0.000000 1.000000 1.000000 1.000000
209 1 189.222097 223.918303 189.222097 223.918303 0.000000 0.000000 1.000000 1.000000 1.000000
210 1 145.416626 231.970647 145.416626 231.970647 -0.000000 -0.000000 1.000000 1.000000 1.000000
211 1 152.608946 2.002543 152.608946 2.002543 0.000000 -0.000000 1.000000 1.000000 1.000000
212 1 71.617278 155.677868 71.617278 155.677868 0.000000 0.000000 1.000000 1.000000 1.000000
213 1 69.035715 80.906983 69.035715 80.906983 -0.000000 0.000000 1.000000 1.000000 1.000000
214 1 139.785217 77.825842 139.785217 77.825842 0.000000 -0.000000 1.000000 1.000000 1.000000
215 1 191.504229 26.560635 191.504229 26.560635 0.000000 -0.000000 1.000000 1.000000 1.000000
216 1 28.216110 37.832395 28.216110 37.832395 0.000000 0.000000 1.000000 1.000000 1.000000
217 1 222.270194 155.774804 222.270194 155.774804 -0.000000 -0.000000 1.000000 1.000000 1.000000
218 1 3.113283 214.335909 3.113283 214.335909 0.000000 -0.000000 1.000000 1.000000 1.000000
219 1 114.789911 100.356322 114.789911 100.356322 0.000000 -0.000000 1.000000 1.000000 1.000000
220 1 92.501950 63.469783 92.501950 63.469783 -0.000000 -0.000000 1.000000 1.000000 1.000000
221 1 160.023387 32.283846 160.023387 32.283846 0.000000 -0.000000 1.000000 1.000000 1.000000
222 1 39.925054 174.757563 39.925054 174.757563 0.000000 0.000000 1.000000 1.000000 1.000000
223 1 110.640654 144.550353 110.640654 144.550353 -0.000000 0.000000 1.000000 1.000000 1.000000
224 1 16.358551 28.485001 16.358551 28.485001 -0.000000 0.000000 1.000000 1.000000 1.000000
225 1 234.892527 160.322829 234.892527 160.322829 0.000000 -0.000000 1.000000 1.000000 1.000000
226 1 124.835136 224.431994 124.835136 224.431994 0.000000 -0.000000 1.000000 1.000000 1.000000
227 1 123.879809 78.275010 123.879809 78.275010 0.000000 -0.000000 1.000000 1.000000 1.000000
228 1 144.024751 25.435146 144.024751 25.435146 0.000000 0.000000 1.000000 1.000000 1.000000
229 1 215.081574 57.172613 215.081574 57.172613 0.000000 0.000000 1.000000 1.000000 1.000000
230 1 194.068842 14.542343 194.068842 14.542343 0.000000 -0.000000 1.000000 1.000000 1.000000
231 1 96.693148 193.658142 96.693148 193.658142 0.000000 0.000000 1.000000 1.000000 1.000000
232 1 97.992996 176.793901 97.992996 176.793901 -0.000000 0.000000 1.000000 1.000000 1.000000
233 1 170.493891 49.525827 170.493891 49.525827 -0.000000 -0.000000 1.000000 1.000000 1.000000
234 1 52.489954 164.216598 52.489954 164.216598 0.000000 -0.000000 1.000000 1.000000 1.000000
235 1 84.168507 39.031948 84.168507 39.031948 -0.000000 -0.000000 1.000000 1.000000 1.000000
236 1 117.019948 198.214189 117.019948 198.214189 0.000000 0.000000 1.000000 1.000000 1.000000
237 1 22.354922 130.676785 22.354922 130.676785 -0.000000 -0.000000 1.000000 1.000000 1.000000
238 1 133.897156 178.149218 133.897156 178.149218 0.000000 0.000000 1.000000 1.000000 1.000000
239 1 116.163723 154.072110 116.163723 154.072110 -0.000000 -0.000000 1.000000 1.000000 1.000000
240 1 86.204743 55.773766 86.204743 55.773766 0.000000 -0.000000 1.000000 1.000000 1.000000
241 1 25.774625 43.261492 25.774625 43.261492 -0.000000 0.000000 1.000000 1.000000 1.000000
242 1 65.679038 219.364849 65.679038 219.364849 0.000000 0.000000 1.000000 1.000000 1.000000
243 1 93.645156 205.965167 93.645156 205.965167 -0.000000 -0.000000 1.000000 1.000000 1.000000
244 1 48.143434 161.423364 48.143434 161.423364 0.000000 -0.000000 1.000000 1.000000 1.000000
245 1 64.400059 85.517813 64.400059 85.517813 0.000000 -0.000000 1.000000 1.000000 1.000000
246 1 178.444139 196.443697 178.444139 196.443697 -0.000000 -0.000000 1.000000 1.000000 1.000000
247 1 70.058053 179.765726 70.058053 179.765726 -0.000000 0.000000 1.000000 1.000000 1.000000
248 1 208.393252 132.517389 208.393252 132.517389 -0.000000 0.000000 1.000000 1.000000 1.000000
249 1 173.290522 79.380125 173.290522 79.380125 -0.000000 -0.000000 1.000000 1.000000 1.000000
250 1 208.759336 2.987189 208.759336 2.987189 -0.000000 -0.000000 1.000000 1.000000 1.000000
251 1 194.998101 18.413660 194.998101 18.413660 0.000000 -0.000000 1.000000 1.000000 1.000000
252 1 153.247660 36.329945 153.247660 36.329945 -0.000000 0.000000 1.000000 1.000000 1.000000
253 1 233.034792 176.074323 233.034792 176.074323 0.000000 -0.000000 1.000000 1.000000 1.000000
254 1 128.692696 72.589671 128.692696 72.589671 -0.000000 0.000000 1.000000 1.000000 1.000000
255 1 31.063957 140.520595 31.063957 140.520595 0.000000 0.000000 1.000000 1.000000 1.000000
256 1 28.313076 97.495628 28.313076 97.495628 -0.000000 -0.000000 1.000000 1.000000 1.000000
257 1 97.011194 232.460079 97.011194 232.460079 -0.000000 0.000000 1.000000 1.000000 1.000000
258 1 178.265217 98.806132 178.265217 98.806132 -0.000000 0.000000 1.000000 1.000000 1.000000
259 1 237.679798 32.644703 237.679798 32.644703 0.000000 0.000000 1.000000 1.000000 1.000000
260 1 164.258217 32.528608 164.258217 32.528608 0.000000 -0.000000 1.000000 1.000000 1.000000
261 1 130.338639 198.845648 130.338639 198.845648 0.000000 0.000000 1.000000 1.000000 1.000000
262 1 203.494610 148.254795 203.494610 148.254795 -0.000000 0.000000 1.000000 1.000000 1.000000
263 1 98.938706 95.965419 98.938706 95.965419 0.000000 0.000000 1.000000 1.000000 1.000000
264 1 76.570635 6.141110 76.570635 6.141110 0.000000 0.000000 1.000000 1.000000 1.000000
265 1 88.637823 180.543368 88.637823 180.543368 0.000000 0.000000 1.000000 1.000000 1.000000
266 1 26.043291 187.624127 26.043291 187.624127 0.000000 0.000000 1.000000 1.000000 1.000000
267 1 159.721035 231.435675 159.721035 231.435675 -0.000000 0.000000 1.000000 1.000000 1.000000
268 1 90.493712 237.938425 90.493712 237.938425 0.000000 -0.000000 1.000000 1.000000 1.000000
269 1 190.908106 236.111383 190.908106 236.111383 0.000000 -0.000000 1.000000 1.000000 1.000000
270 1 183.568035 81.289446 183.568035 81.289446 0.000000 -0.000000 1.000000 1.000000 1.000000
271 1 128.080054 208.578712 128.080054 208.578712 0.000000 -0.000000 1.000000 1.000000 1.000000
272 1 112.830072 164.310481 112.830072 164.310481 -0.000000 0.000000 1.000000 1.000000 1.000000
273 1 66.112928 91.767156 66.112928 91.767156 0.000000 -0.000000 1.000000 1.000000 1.000000
274 1 128.600092 175.292209 128.600092 175.292209 -0.000000 0.000000 1.000000 1.000000 1.000000
275 1 102.983546 3.256224 102.983546 3.256224 0.000000 -0.000000 1.000000 1.000000 1.000000
276 1 16.482377 107.571384 16.482377 107.571384 -0.000000 0.000000 1.000000 1.000000 1.000000
277 1 171.672723 109.485644 171.672723 109.485644 0.000000 -0.000000 1.000000 1.000000 1.000000
278 1 158.897734 85.120942 158.897734 85.120942 0.000000 -0.000000 1.000000 1.000000 1.000000
279 1 238.509340 163.428986 238.509340 163.428986 0.000000 -0.000000 1.000000 1.000000 1.000000
280 1 182.892012 47.855152 182.892012 47.855152 0.000000 -0.000000 1.000000 1.000000 1.000000
281 1 193.141836 166.885884 193.141836 166.885884 0.000000 0.000000 1.000000 1.000000 1.000000
282 1 5.863578 210.252353 5.863578 210.252353 -0.000000 -0.000000 1.000000 1.000000 1.000000
283 1 133.517195 212.803965 133.517195 212.803965 0.000000 -0.000000 1.000000 1.000000 1.000000
284 1 139.103222 239.585497 139.103222 -1.075332 -0.000000 -0.000000 1.000000 1.000000 1.000000
285 1 110.354634 115.871054 110.354634 115.871054 0.000000 -0.000000 1.000000 1.000000 1.000000
286 1 10.571528 2.044181 10.571528 2.044181 -0.000000 -0.000000 1.000000 1.000000 1.000000
287 1 172.868049 58.009311 172.868049 58.009311 0.000000 -0.000000 1.000000 1.000000 1.000000
288 1 207.780491 140.133795 207.780491 140.133795 -0.000000 -0.000000 1.000000 1.000000 1.000000
289 1 36.075390 202.810350 36.075390 202.810350 0.000000 -0.000000 1.000000 1.000000 1.000000
290 1 55.150232 108.751788 55.150232 108.751788 -0.000000 -0.000000 1.000000 1.000000 1.000000
291 1 156.720353 10.836490 156.720353 10.836490 0.000000 0.000000 1.000000 1.000000 1.000000
292 1 230.597268 71.800828 -10.063561 71.800828 0.000000 0.000000 1.000000 1.000000 1.000000
293 1 143.740034 144.689053 143.740034 144.689053 0.000000 0.000000 1.000000 1.000000 1.000000
294 1 40.305224 195.617333 40.305224 195.617333 0.000000 0.000000 1.000000 1.000000 1.000000
295 1 166.071762 24.771724 166.071762 24.771724 -0.000000 0.000000 1.000000 1.000000 1.000000
296 1 187.743739 217.648939 187.743739 217.648939 0.000000 -0.000000 1.000000 1.000000 1.000000
297 1 109.381656 236.987603 109.381656 -3.673226 -0.000000 -0.000000 1.000000 1.000000 1.000000
298 1 227.196880 78.892702 227.196880 78.892702 -0.000000 0.000000 1.000000 1.000000 1.000000
299 1 122.258797 32.463747 122.258797 32.463747 0.000000 -0.000000 1.000000 1.000000 1.000000
300 1 171.237707 47.257712 171.237707 47.257712 -0.000000 0.000000 1.000000 1.000000 1.000000
301 1 8.747366 29.916607 8.747366 29.916607 0.000000 0.000000 1.000000 1.000000 1.000000
302 1 228.038448 19.063197 228.038448 19.063197 0.000000 -0.000000 1.000000 1.000000 1.000000
303 1 79.080713 76.709204 79.080713 76.709204 -0.000000 -0.000000 1.000000 1.000000 1.000000
304 1 96.821852 120.883452 96.821852 120.883452 0.000000 -0.000000 1.000000 1.000000 1.000000
305 1 184.733190 131.398977 184.733190 131.398977 -0.000000 0.000000 1.000000 1.000000 1.000000
306 1 49.483496 203.063985 49.483496 203.063985 0.000000 -0.000000 1.000000 1.000000 1.000000
307 1 73.196399 39.246811 73.196399 39.246811 -0.000000 0.000000 1.000000 1.000000 1.000000
308 1 97.146562 137.519385 97.146562 137.519385 -0.000000 -0.000000 1.000000 1.000000 1.000000
309 1 23.506103 79.836119 23.506103 79.836119 0.000000 0.000000 1.000000 1.000000 1.000000
310 1 22.835264 175.715026 22.835264 175.715026 0.000000 -0.000000 1.000000 1.000000 1.000000
311 1 93.002568 22.712286 93.002568 22.712286 0.000000 0.000000 1.000000 1.000000 1.000000
312 1 160.112169 16.230036 160.112169 16.230036 0.000000 0.000000 1.000000 1.000000 1.000000
313 1 50.345426 227.622504 50.345426 227.622504 0.000000 -0.000000 1.000000 1.000000 1.000000
314 1 90.569641 234.633026 90.569641 234.633026 -0.000000 -0.000000 1.000000 1.000000 1.000000
315 1 159.560123 22.438019 159.560123 22.438019 0.000000 -0.000000 1.000000 1.000000 1.000000
316 1 76.061353 170.221439 76.061353 170.221439 0.000000 -0.000000 1.000000 1.000000 1.000000