ITEM: TIMESTEP
1700.000000
ITEM: NUMBER OF ATOMS
5000
ITEM: BOX BOUNDS xy xz yz
0 267.391671 0
0 267.391671 0
0 2 0
ITEM: ATOMS id type x y xu yu vx vy radius m z
0 1 155.559740 142.893321 155.559740 142.893321 0.000000 0.000000 1.000000 1.000000 1.000000
1 1 195.767586 112.375032 195.767586 112.375032 0.000000 0.000000 1.000000 1.000000 1.000000
2 1 72.131165 260.765586 72.131165 260.765586 0.000000 0.000000 1.000000 1.000000 1.000000
3 1 178.378031 250.071818 178.378031 250.071818 -0.000000 0.000000 1.000000 1.000000 1.000000
4 1 255.675645 121.072363 255.675645 121.072363 0.000000 -0.000000 1.000000 1.000000 1.000000
5 1 195.556423 89.625722 195.556423 89.625722 0.000000 -0.000000 1.000000 1.000000 1.000000
6 1 247.918977 100.640789 247.918977 100.640789 -0.000000 -0.000000 1.000000 1.000000 1.000000
7 1 155.590879 67.854746 155.590879 67.854746 -0.000000 -0.000000 1.000000 1.000000 1.000000
8 1 93.982411 48.608891 93.982411 48.608891 0.000000 0.000000 1.000000 1.000000 1.000000
9 1 55.005961 45.716344 55.005961 45.716344 0.000000 0.000000 1.000000 1.000000 1.000000
10 1 169.415752 187.075933 169.415752 187.075933 -0.000000 0.000000 1.000000 1.000000 1.000000
11 1 10.806924 237.705019 278.198595 237.705019 -0.000000 -0.000000 1.000000 1.000000 1.000000
12 1 239.050809 116.553483 239.050809 116.553483 -0.000000 -0.000000 1.000000 1.000000 1.000000
13 1 205.844304 132.202919 205.844304 132.202919 0.000000 0.000000 1.000000 1.000000 1.000000
14 1 219.372263 24.202574 219.372263 24.202574 -0.000000 -0.000000 1.000000 1.000000 1.000000
15 1 261.720168 85.717454 261.720168 85.717454 0.000000 -0.000000 1.000000 1.000000 1.000000
16 1 223.713503 78.718328 223.713503 78.718328 -0.000000 0.000000 1.000000 1.000000 1.000000
17 1 48.228428 50.900765 48.228428 50.900765 0.000000 0.000000 1.000000 1.000000 1.000000
18 1 192.011506 57.029426 192.011506 57.029426 -0.000000 -0.000000 1.000000 1.000000 1.000000
19 1 221.297801 162.791698 221.297801 162.791698 0.000000 0.000000 1.000000 1.000000 1.000000
20 1 58.679195 109.828915 58.679195 109.828915 -0.000000 0.000000 1.000000 1.000000 1.000000
21 1 132.742892 4.728442 132.742892 4.728442 -0.000000 -0.000000 1.000000 1.000000 1.000000
22 1 258.677813 137.168909 -8.713858 137.168909 -0.000000 -0.000000 1.000000 1.000000 1.000000
23 1 178.097432 252.253388 178.097432 252.253388 0.000000 -0.000000 1.000000 1.000000 1.000000
24 1 229.466297 96.011379 229.466297 96.011379 0.000000 0.000000 1.000000 1.000000 1.000000
25 1 56.170940 21.995369 56.170940 21.995369 -0.000000 0.000000 1.000000 1.000000 1.000000
26 1 214.036752 78.472402 214.036752 78.472402 0.000000 0.000000 1.000000 1.000000 1.000000
27 1 141.637292 240.177100 141.637292 240.177100 0.000000 0.000000 1.000000 1.000000 1.000000
28 1 4.333843 85.651358 4.333843 85.651358 0.000000 0.000000 1.000000 1.000000 1.000000
29 1 133.657688 163.099372 133.657688 163.099372 -0.000000 0.000000 1.000000 1.000000 1.000000
30 1 239.735436 33.863674 239.735436 33.863674 -0.000000 -0.000000 1.000000 1.000000 1.000000
31 1 161.373287 19.007567 161.373287 19.007567 -0.000000 0.000000 1.000000 1.000000 1.000000
32 1 33.548683 111.054141 33.548683 111.054141 -0.000000 0.000000 1.000000 1.000000 1.000000
33 1 66.228385 124.645803 66.228385 124.645803 0.000000 -0.000000 1.000000 1.000000 1.000000
34 1 96.445814 255.448478 96.445814 255.448478 0.000000 -0.000000 1.000000 1.000000 1.000000
35 1 124.857092 3.727802 124.857092 3.727802 -0.000000 0.000000 1.000000 1.000000 1.000000
36 1 44.128528 242.549043 44.128528 242.549043 0.000000 0.000000 1.000000 1.000000 1.000000
37 1 199.062755 232.364731 199.062755 232.364731 -0.000000 -0.000000 1.000000 1.000000 1.000000
38 1 23.621546 200.197090 23.621546 200.197090 0.000000 0.000000 1.000000 1.000000 1.000000
39 1 117.369322 78.158037 117.369322 78.158037 -0.000000 0.000000 1.000000 1.000000 1.000000
40 1 176.401705 224.005673 176.401705 224.005673 0.000000 -0.000000 1.000000 1.000000 1.000000
41 1 38.949914 163.091252 38.949914 163.091252 0.000000 -0.000000 1.000000 1.000000 1.000000
42 1 175.103087 92.826322 175.103087 92.826322 0.000000 0.000000 1.000000 1.000000 1.000000
43 1 86.125023 159.491386 86.125023 159.491386 0.000000 -0.000000 1.000000 1.000000 1.000000
44 1 29.220864 48.128572 29.220864 48.128572 -0.000000 0.000000 1.000000 1.000000 1.000000
45 1 92.993286 87.096455 92.993286 87.096455 0.000000 -0.000000 1.000000 1.000000 1.000000
46 1 255.615866 176.183136 255.615866 176.183136 -0.000000 0.000000 1.000000 1.000000 1.000000
47 1 171.833966 196.580130 171.833966 196.580130 0.000000 -0.000000 1.000000 1.000000 1.000000
48 1 216.550664 66.957763 216.550664 66.957763 0.000000 -0.000000 1.000000 1.000000 1.000000
49 1 83.232891 59.130657 83.232891 59.130657 -0.000000 0.000000 1.000000 1.000000 1.000000
50 1 154.996009 95.981075 154.996009 95.981075 0.000000 -0.000000 1.000000 1.000000 1.000000
51 1 12.285238 67.623646 12.285238 67.623646 -0.000000 -0.000000 1.000000 1.000000 1.000000
52 1 27.101471 50.477929 27.101471 50.477929 0.000000 0.000000 1.000000 1.000000 1.000000
53 1 190.837784 35.261863 190.837784 35.261863 0.000000 0.000000 1.000000 1.000000 1.000000
54 1 101.977885 82.569083 101.977885 82.569083 -0.000000 0.000000 1.000000 1.000000 1.000000
55 1 250.662928 194.544863 250.662928 194.544863 -0.000000 0.000000 1.000000 1.000000 1.000000
56 1 132.288150 241.308452 132.288150 241.308452 -0.000000 0.000000 1.000000 1.000000 1.000000
57 1 127.149273 148.142208 127.149273 148.142208 0.000000 0.000000 1.000000 1.000000 1.000000
58 1 208.253555 168.237702 208.253555 168.237702 -0.000000 -0.000000 1.000000 1.000000 1.000000
59 1 76.027708 174.569418 76.027708 174.569418 -0.000000 -0.000000 1.000000 1.000000 1.000000
60 1 244.496256 207.811245 244.496256 207.811245 -0.000000 -0.000000 1.000000 1.000000 1.000000
61 1 242.662785 68.700979 242.662785 68.700979 0.000000 0.000000 1.000000 1.000000 1.000000
62 1 147.555122 62.395384 147.555122 62.395384 -0.000000 -0.000000 1.000000 1.000000 1.000000
63 1 174.769097 185.356571 174.769097 185.356571 -0.000000 0.000000 1.000000 1.000000 1.000000
64 1 260.951547 70.691306 260.951547 70.691306 -0.000000 -0.000000 1.000000 1.000000 1.000000
65 1 241.054233 67.444081 241.054233 67.444081 0.000000 0.000000 1.000000 1.000000 1.000000
66 1 215.612656 196.521030 215.612656 196.521030 -0.000000 0.000000 1.000000 1.000000 1.000000
67 1 0.690829 228.616552 0.690829 228.616552 0.000000 -0.000000 1.000000 1.000000 1.000000
68 1 218.672210 243.954150 218.672210 243.954150 -0.000000 -0.000000 1.000000 1.000000 1.000000
69 1 34.196160 124.568670 34.196160 124.568670 0.000000 -0.000000 1.000000 1.000000 1.000000
70 1 266.134447 22.041189 -1.257224 22.041189 -0.000000 -0.000000 1.000000 1.000000 1.000000
71 1 257.944679 94.670160 257.944679 94.670160 0.000000 0.000000 1.000000 1.000000 1.000000
72 1 75.417094 117.214361 75.417094 117.214361 0.000000 0.000000 1.000000 1.000000 1.000000
73 1 50.597083 111.580012 50.597083 111.580012 0.000000 0.000000 1.000000 1.000000 1.000000
74 1 19.745129 146.319367 19.745129 146.319367 0.000000 -0.000000 1.000000 1.000000 1.000000
75 1 236.489308 178.570392 -30.902363 178.570392 0.000000 0.000000 1.000000 1.000000 1.000000
76 1 244.322080 82.421264 244.322080 82.421264 -0.000000 -0.000000 1.000000 1.000000 1.000000
77 1 212.693809 4.849906 212.693809 272.241577 -0.000000 -0.000000 1.000000 1.000000 1.000000
78 1 154.560020 245.848466 154.560020 245.848466 0.000000 -0.000000 1.000000 1.000000 1.000000
79 1 66.016495 21.837566 66.016495 21.837566 -0.000000 -0.000000 1.000000 1.000000 1.000000
80 1 144.932734 263.307595 144.932734 263.307595 -0.000000 -0.000000 1.000000 1.000000 1.000000
81 1 168.420152 178.863090 168.420152 178.863090 0.000000 -0.000000 1.000000 1.000000 1.000000
82 1 235.798104 210.912328 235.798104 210.912328 0.000000 -0.000000 1.000000 1.000000 1.000000
83 1 209.922563 109.827039 209.922563 109.827039 -0.000000 0.000000 1.000000 1.000000 1.000000
84 1 59.236122 128.240421 59.236122 128.240421 -0.000000 0.000000 1.000000 1.000000 1.000000
85 1 171.399995 183.515199 171.399995 183.515199 -0.000000 -0.000000 1.000000 1.000000 1.000000
86 1 62.990721 121.721268 62.990721 121.721268 0.000000 0.000000 1.000000 1.000000 1.000000
87 1 173.696419 169.383130 173.696419 169.383130 0.000000 -0.000000 1.000000 1.000000 1.000000
88 1 178.756858 263.399990 178.756858 263.399990 -0.000000 0.000000 1.000000 1.000000 1.000000
89 1 238.547968 170.387218 238.547968 170.387218 0.000000 -0.000000 1.000000 1.000000 1.000000
90 1 85.734185 100.557893 85.734185 100.557893 0.000000 0.000000 1.000000 1.000000 1.000000
91 1 111.051116 126.053604 111.051116 126.053604 0.000000 0.000000 1.000000 1.000000 1.000000
92 1 70.486258 53.705799 70.486258 53.705799 0.000000 0.000000 1.000000 1.000000 1.000000
93 1 39.185532 190.251153 39.185532 190.251153 0.000000 -0.000000 1.000000 1.000000 1.000000
94 1 161.697660 71.747379 161.697660 71.747379 0.000000 -0.000000 1.000000 1.000000 1.000000
95 1 190.943934 102.838739 190.943934 102.838739 -0.000000 -0.000000 1.000000 1.000000 1.000000
96 1 153.744100 35.448773 153.744100 35.448773 -0.000000 0.000000 1.000000 1.000000 1.000000
97 1 134.206038 16.252115 134.206038 16.252115 -0.000000 -0.000000 1.000000 1.000000 1.000000
98 1 82.703050 56.247003 82.703050 56.247003 -0.000000 -0.000000 1.000000 1.000000 1.000000
99 1 45.777297 162.036426 45.777297 162.036426 -0.000000 -0.000000 1.000000 1.000000 1.000000
100 1 215.494837 75.238830 215.494837 75.238830 0.000000 0.000000 1.000000 1.000000 1.000000
101 1 233.219154 77.912994 233.219154 77.912994 -0.000000 -0.000000 1.000000 1.000000 1.000000
102 1 162.560774 66.652470 162.560774 66.652470 -0.000000 -0.000000 1.000000 1.000000 1.000000
103 1 137.022409 101.780603 137.022409 101.780603 -0.000000 -0.000000 1.000000 1.000000 1.000000
104 1 114.879592 2.384199 114.879592 269.775870 -0.000000 0.000000 1.000000 1.000000 1.000000
105 1 93.180826 67.419227 93.180826 67.419227 -0.000000 -0.000000 1.000000 1.000000 1.000000
106 1 148.669162 181.227231 148.669162 181.227231 -0.000000 0.000000 1.000000 1.000000 1.000000
107 1 183.096682 35.777690 183.096682 35.777690 0.000000 -0.000000 1.000000 1.000000 1.000000
108 1 99.777033 263.156351 99.777033 263.156351 0.000000 0.000000 1.000000 1.000000 1.000000
109 1 191.078489 62.688114 191.078489 62.688114 0.000000 -0.000000 1.000000 1.000000 1.000000
110 1 85.199088 203.980998 85.199088 203.980998 0.000000 0.000000 1.000000 1.000000 1.000000
111 1 12.617232 147.618583 280.008903 147.618583 -0.000000 0.000000 1.000000 1.000000 1.000000
112 1 145.954116 46.230728 145.954116 46.230728 0.000000 0.000000 1.000000 1.000000 1.000000
113 1 155.007526 18.224647 155.007526 18.224647 -0.000000 -0.000000 1.000000 1.000000 1.000000
114 1 262.558529 102.070287 262.558529 102.070287 0.000000 0.000000 1.000000 1.000000 1.000000
115 1 243.663119 110.134960 243.663119 110.134960 -0.000000 -0.000000 1.000000 1.000000 1.000000
116 1 206.067958 118.001316 206.067958 118.001316 0.000000 0.000000 1.000000 1.000000 1.000000
117 1 101.684712 188.620927 101.684712 188.620927 -0.000000 -0.000000 1.000000 1.000000 1.000000
118 1 54.031028 209.157540 54.031028 209.157540 0.000000 -0.000000 1.000000 1.000000 1.000000
119 1 136.593137 88.348724 136.593137 88.348724 0.000000 -0.000000 1.000000 1.000000 1.000000
120 1 238.292087 91.613452 238.292087 91.613452 0.000000 -0.000000 1.000000 1.000000 1.000000
121 1 146.290932 168.386070 146.290932 168.386070 0.000000 0.000000 1.000000 1.000000 1.000000
122 1 218.521299 225.820865 218.521299 225.820865 -0.000000 0.000000 1.000000 1.000000 1.000000
123 1 177.747061 231.444782 177.747061 231.444782 0.000000 0.000000 1.000000 1.000000 1.000000
124 1 229.729128 14.614106 229.729128 14.614106 0.000000 0.000000 1.000000 1.000000 1.000000
125 1 174.893869 150.235650 174.893869 150.235650 -0.000000 -0.000000 1.000000 1.000000 1.000000
126 1 203.194238 115.164196 203.194238 115.164196 -0.000000 0.000000 1.000000 1.000000 1.000000
127 1 151.309145 250.608821 151.309145 -16.782850 -0.000000 0.000000 1.000000 1.000000 1.000000
128 1 210.149853 244.235890 210.149853 244.235890 0.000000 -0.000000 1.000000 1.000000 1.000000
129 1 104.140627 50.095961 104.140627 50.095961 0.000000 0.000000 1.000000 1.000000 1.000000
130 1 139.980710 242.061171 139.980710 242.061171 -0.000000 0.000000 1.000000 1.000000 1.000000
131 1 146.944060 91.895260 146.944060 91.895260 -0.000000 -0.000000 1.000000 1.000000 1.000000
132 1 211.672940 180.061970 211.672940 180.061970 0.000000 -0.000000 1.000000 1.000000 1.000000
133 1 252.172410 191.663597 252.172410 191.663597 0.000000 -0.000000 1.000000 1.000000 1.000000
134 1 6.037763 203.153586 273.429434 203.153586 -0.000000 -0.000000 1.000000 1.000000 1.000000
135 1 146.043135 219.376724 146.043135 219.376724 -0.000000 0.000000 1.000000 1.000000 1.000000
136 1 66.002473 130.055685 66.002473 130.055685 0.000000 0.000000 1.000000 1.000000 1.000000
137 1 106.496404 130.476277 106.496404 130.476277 -0.000000 -0.000000 1.000000 1.000000 1.000000
138 1 130.587651 112.306485 130.587651 112.306485 0.000000 -0.000000 1.000000 1.000000 1.000000
139 1 188.600603 165.855748 188.600603 165.855748 -0.000000 -0.000000 1.000000 1.000000 1.000000
140 1 131.366561 140.165551 131.366561 140.165551 0.000000 0.000000 1.000000 1.000000 1.000000
141 1 16.497171 209.326723 16.497171 209.326723 -0.000000 -0.000002 1.000000 1.000000 1.000000
142 1 248.768992 107.200627 248.768992 107.200627 -0.000000 0.000000 1.000000 1.000000 1.000000
143 1 131.369651 71.493360 131.369651 71.493360 -0.000000 0.000000 1.000000 1.000000 1.000000
144 1 73.291805 209.095418 73.291805 209.095418 -0.000000 -0.000000 1.000000 1.000000 1.000000
145 1 173.000069 94.598652 173.000069 94.598652 0.000000 0.000000 1.000000 1.000000 1.000000
146 1 9.861470 5.483135 9.861470 5.483135 0.000000 -0.000000 1.000000 1.000000 1.000000
147 1 201.920657 247.591851 201.920657 247.591851 -0.000000 0.000000 1.000000 1.000000 1.000000
148 1 130.593260 176.803850 130.593260 176.803850 0.000000 0.000000 1.000000 1.000000 1.000000
149 1 258.193668 221.733796 258.193668 221.733796 0.000000 0.000000 1.000000 1.000000 1.000000
150 1 208.673000 245.876758 208.673000 245.876758 0.000000 -0.000000 1.000000 1.000000 1.000000
151 1 151.052304 83.942858 151.052304 83.942858 0.000000 0.000000 1.000000 1.000000 1.000000
152 1 232.867831 124.810780 232.867831 124.810780 0.000000 0.000000 1.000000 1.000000 1.000000
153 1 21.181260 6.147763 21.181260 6.147763 -0.000000 0.000000 1.000000 1.000000 1.000000
154 1 156.193222 42.757340 156.193222 42.757340 -0.000000 0.000000 1.000000 1.000000 1.000000
155 1 61.781594 36.476847 61.781594 36.476847 -0.000000 -0.000000 1.000000 1.000000 1.000000
156 1 223.135492 210.191318 223.135492 210.191318 0.000000 0.000000 1.000000 1.000000 1.000000
157 1 96.902226 66.805335 96.902226 66.805335 0.000000 -0.000000 1.000000 1.000000 1.000000
158 1 116.056210 76.041410 116.056210 76.041410 -0.000000 -0.000000 1.000000 1.000000 1.000000
159 1 82.100732 143.577858 82.100732 143.577858 0.000000 -0.000000 1.000000 1.000000 1.000000
160 1 212.039689 93.465400 212.039689 93.465400 -0.000000 -0.000000 1.000000 1.000000 1.000000
161 1 213.267818 236.136748 213.267818 236.136748 -0.000000 0.000000 1.000000 1.000000 1.000000
162 1 5.137373 189.035086 272.529044 189.035086 -0.000000 0.000000 1.000000 1.000000 1.000000
163 1 162.074116 175.105349 162.074116 175.105349 0.000000 -0.000000 1.000000 1.000000 1.000000
164 1 184.058724 32.882446 184.058724 32.882446 -0.000000 0.000000 1.000000 1.000000 1.000000
165 1 198.939926 39.311923 198.939926 39.311923 0.000000 0.000000 1.000000 1.000000 1.000000
166 1 197.497449 97.249594 197.497449 97.249594 -0.000000 0.000000 1.000000 1.000000 1.000000
167 1 249.988290 52.399661 249.988290 52.399661 -0.000000 -0.000000 1.000000 1.000000 1.000000
168 1 50.627903 77.069621 50.627903 77.069621 -0.000000 -0.000000 1.000000 1.000000 1.000000
169 1 42.659465 91.750873 42.659465 91.750873 0.000000 -0.000000 1.000000 1.000000 1.000000
170 1 25.594213 232.002808 25.594213 232.002808 0.000000 0.000000 1.000000 1.000000 1.000000
171 1 21.340117 196.174033 21.340117 196.174033 -0.000000 0.000000 1.000000 1.000000 1.000000
172 1 51.761602 244.731563 51.761602 244.731563 0.000000 -0.000000 1.000000 1.000000 1.000000
173 1 200.443878 214.533772 200.443878 214.533772 0.000000 0.000000 1.000000 1.000000 1.000000
174 1 88.008969 96.040900 88.008969 96.040900 0.000000 -0.000000 1.000000 1.000000 1.000000
175 1 244.731775 6.123070 244.731775 6.123070 -0.000000 -0.000000 1.000000 1.000000 1.000000
176 1 121.407007 116.241366 121.407007 116.241366 -0.000000 0.000000 1.000000 1.000000 1.000000
177 1 140.232343 12.910806 140.232343 280.302477 0.000000 0.000000 1.000000 1.000000 1.000000
178 1 32.875065 128.166695 32.875065 128.166695 -0.000000 -0.000000 1.000000 1.000000 1.000000
179 1 155.191832 56.007247 155.191832 56.007247 -0.000000 0.000000 1.000000 1.000000 1.000000
180 1 216.815756 120.297069 216.815756 120.297069 -0.000000 -0.000000 1.000000 1.000000 1.000000
181 1 37.963127 2.081518 37.963127 269.473189 0.000000 0.000000 1.000000 1.000000 1.000000
182 1 180.177274 231.069659 180.177274 231.069659 0.000000 -0.000000 1.000000 1.000000 1.000000
183 1 90.121915 115.792352 90.121915 115.792352 0.000000 -0.000000 1.000000 1.000000 1.000000
184 1 41.027624 198.666766 41.027624 198.666766 -0.000000 0.000000 1.000000 1.000000 1.000000
185 1 9.230363 222.650296 9.230363 222.650296 -0.000000 -0.000000 1.000000 1.000000 1.000000
186 1 43.811780 26.311542 43.811780 26.311542 -0.000000 0.000000 1.000000 1.000000 1.000000
187 1 106.086540 125.165400 106.086540 125.165400 -0.000000 -0.000000 1.000000 1.000000 1.000000
188 1 223.765396 230.948379 223.765396 230.948379 -0.000000 0.000000 1.000000 1.000000 1.000000
189 1 81.609539 126.926733 81.609539 126.926733 -0.000000 0.000000 1.000000 1.000000 1.000000
190 1 76.841505 204.182688 76.841505 204.182688 0.000000 0.000000 1.000000 1.000000 1.000000
191 1 181.558693 181.477153 181.558693 181.477153 -0.000000 0.000000 1.000000 1.000000 1.000000
192 1 60.239470 117.510831 60.239470 117.510831 0.000000 0.000000 1.000000 1.000000 1.000000
193 1 237.777607 240.084350 237.777607 240.084350 0.000000 0.000000 1.000000 1.000000 1.000000
194 1 83.511808 188.888330 83.511808 188.888330 0.000000 0.000000 1.000000 1.000000 1.000000
195 1 221.911629 6.780724 221.911629 6.780724 0.000000 -0.000000 1.000000 1.000000 1.000000
196 1 179.245801 77.884869 179.245801 77.884869 0.000000 -0.000000 1.000000 1.000000 1.000000
197 1 264.839779 202.699893 264.839779 202.699893 0.000000 -0.000000 1.000000 1.000000 1.000000
198 1 212.082490 54.951676 212.082490 54.951676 0.000000 0.000000 1.000000 1.000000 1.000000
199 1 60.374027 47.812932 60.374027 47.812932 0.000000 0.000000 1.000000 1.000000 1.000000
200 1 228.925214 72.779092 228.925214 72.779092 -0.000000 0.000000 1.000000 1.000000 1.000000
201 1 87.379659 188.807499 87.379659 188.807499 -0.000000 -0.000000 1.000000 1.000000 1.000000
202 1 164.898442 217.430358 164.898442 217.430358 0.000000 0.000000 1.000000 1.000000 1.000000
203 1 141.203010 34.553042 141.203010 34.553042 0.000000 -0.000000 1.000000 1.000000 1.000000
204 1 225.321147 128.433096 225.321147 128.433096 -0.000000 0.000000 1.000000 1.000000 1.000000
205 1 99.344061 162.438303 99.344061 162.438303 -0.000000 0.000000 1.000000 1.000000 1.000000
206 1 69.575938 43.313161 69.575938 43.313161 -0.000000 -0.000000 1.000000 1.000000 1.000000
207 1 228.811350 182.560812 228.811350 182.560812 0.000000 -0.000000 1.000000 1.000000 1.000000
208 1 66.757343 224.712770 66.757343 224.712770 -0.000000 0.000000 1.000000 1.000000 1.000000
209 1 263.674297 98.619980 -3.717374 98.619980 -0.000000 0.000000 1.000000 1.000000 1.000000
210 1 14.808798 194.372260 14.808798 194.372260 -0.000000 -0.000000 1.000000 1.000000 1.000000
211 1 178.680267 142.400665 178.680267 142.400665 -0.000000 -0.000000 1.000000 1.000000 1.000000
212 1 67.873421 102.754541 67.873421 102.754541 0.000000 0.000000 1.000000 1.000000 1.000000
213 1 45.152521 2.730639 45.152521 2.730639 -0.000000 -0.000000 1.000000 1.000000 1.000000
214 1 110.719562 103.876624 110.719562 103.876624 0.000000 0.000000 1.000000 1.000000 1.000000
215 1 54.126058 80.020730 54.126058 80.020730 0.000000 0.000000 1.000000 1.000000 1.000000
216 1 172.544302 185.761636 172.544302 185.761636 -0.000000 -0.000000 1.000000 1.000000 1.000000
217 1 225.112653 34.201928 225.112653 34.201928 0.000000 0.000000 1.000000 1.000000 1.000000
218 1 24.391052 28.172099 24.391052 28.172099 0.000000 0.000000 1.000000 1.000000 1.000000
219 1 154.784101 219.222102 154.784101 219.222102 -0.000000 -0.000000 1.000000 1.000000 1.000000
220 1 92.750433 73.260749 92.750433 73.260749 -0.000000 0.000000 1.000000 1.000000 1.000000
221 1 32.874690 99.578048 32.874690 99.578048 -0.000000 0.000000 1.000000 1.000000 1.000000
222 1 29.984070 11.733550 29.984070 11.733550 -0.000000 -0.000000 1.000000 1.000000 1.000000
223 1 142.578537 39.241781 142.578537 39.241781 -0.000000 -0.000000 1.000000 1.000000 1.000000
224 1 110.532614 80.507604 110.532614 80.507604 0.000000 -0.000000 1.000000 1.000000 1.000000
225 1 199.014018 5.901301 199.014018 273.292972 0.000000 -0.000000 1.000000 1.000000 1.000000
226 1 173.998718 233.045757 173.998718 233.045757 -0.000000 0.000000 1.000000 1.000000 1.000000
227 1 135.694195 43.752700 135.694195 43.752700 -0.000000 0.000000 1.000000 1.000000 1.000000
228 1 218.906801 2.238173 218.906801 269.629844 0.000000 0.000000 1.000000 1.000000 1.000000
229 1 170.019544 16.930873 170.019544 16.930873 -0.000000 -0.000000 1.000000 1.000000 1.000000
230 1 222.417420 155.333224 222.417420 155.333224 -0.000000 0.000000 1.000000 1.000000 1.000000
231 1 198.473336 66.726637 198.473336 66.726637 0.000000 -0.000000 1.000000 1.000000 1.000000
232 1 168.872491 43.016352 168.872491 43.016352 -0.000000 -0.000000 1.000000 1.000000 1.000000
233 1 205.008893 92.740538 205.008893 92.740538 -0.000000 0.000000 1.000000 1.000000 1.000000
234 1 58.371711 3.862665 58.371711 3.862665 0.000000 -0.000000 1.000000 1.000000 1.000000
235 1 174.561954 32.312749 174.561954 32.312749 -0.000000 -0.000000 1.000000 1.000000 1.000000
236 1 196.934146 14.340440 196.934146 14.340440 -0.000000 -0.000000 1.000000 1.000000 1.000000
237 1 1.537716 246.836988 1.537716 246.836988 -0.000000 0.000000 1.000000 1.000000 1.000000
238 1 218.601353 233.772810 218.601353 233.772810 0.000000 -0.000000 1.000000 1.000000 1.000000
239 1 140.957834 176.726478 140.957834 176.726478 -0.000000 0.000000 1.000000 1.000000 1.000000
240 1 49.452080 44.869238 49.452080 44.869238 0.000000 0.000000 1.000000 1.000000 1.000000
241 1 191.061385 137.120979 191.061385 137.120979 -0.000000 0.000000 1.000000 1.000000 1.000000
242 1 31.161878 164.392959 31.161878 164.392959 0.000000 -0.000000 1.000000 1.000000 1.000000
243 1 218.943456 237.723192 218.943456 237.723192 -0.000000 -0.000000 1.000000 1.000000 1.000000
244 1 131.355401 232.539773 131.355401 232.539773 -0.000000 -0.000000 1.000000 1.000000 1.000000
245 1 49.381609 245.678659 49.381609 245.678659 -0.000000 0.000000 1.000000 1.000000 1.000000
246 1 27.268929 67.856563 27.268929 67.856563 0.000000 -0.000000 1.000000 1.000000 1.000000
247 1 69.264806 118.575826 69.264806 118.575826 -0.000000 0.000000 1.000000 1.000000 1.000000
248 1 188.342809 157.909423 188.342809 157.909423 0.000000 -0.000000 1.000000 1.000000 1.000000
249 1 164.015083 260.518403 164.015083 260.518403 0.000000 0.000000 1.000000 1.000000 1.000000
250 1 54.444563 180.756222 54.444563 180.756222 0.000000 -0.000000 1.000000 1.000000 1.000000
251 1 181.946274 7.949060 181.946274 7.949060 -0.000000 0.000000 1.000000 1.000000 1.000000
252 1 101.597361 56.177215 101.597361 56.177215 0.000000 -0.000000 1.000000 1.000000 1.000000
253 1 99.638688 19.635324 99.638688 19.635324 -0.000000 0.000000 1.000000 1.000000 1.000000
254 1 177.357316 19.442482 177.357316 19.442482 0.000000 -0.000000 1.000000 1.000000 1.000000
255 1 171.672713 141.378716 171.672713 141.378716 -0.000000 0.000000 1.000000 1.000000 1.000000
256 1 139.217841 87.701632 139.217841 87.701632 -0.000000 -0.000000 1.000000 1.000000 1.000000
257 1 171.678890 13.206212 171.678890 13.206212 0.000000 -0.000000 1.000000 1.000000 1.000000
258 1 9.993113 257.444258 277.384784 257.444258 -0.000000 0.000000 1.000000 1.000000 1.000000
259 1 244.775761 146.187868 244.775761 146.187868 0.000000 -0.000000 1.000000 1.000000 1.000000
260 1 188.609557 208.956392 188.609557 208.956392 -0.000000 -0.000000 1.000000 1.000000 1.000000
261 1 193.811593 172.770740 193.811593 172.770740 -0.000000 -0.000001 1.000000 1.000000 1.000000
262 1 155.265135 109.164125 155.265135 109.164125 0.000000 -0.000000 1.000000 1.000000 1.000000
263 1 114.253845 131.601825 114.253845 131.601825 0.000000 0.000000 1.000000 1.000000 1.000000
264 1 235.763926 170.921029 235.763926 170.921029 0.000000 0.000000 1.000000 1.000000 1.000000
265 1 197.628419 250.275317 197.628419 250.275317 -0.000000 0.000000 1.000000 1.000000 1.000000
266 1 23.349452 2.632702 23.349452 2.632702 -0.000000 -0.000000 1.000000 1.000000 1.000000
267 1 76.495519 236.431143 76.495519 236.431143 -0.000000 -0.000000 1.000000 1.000000 1.000000
268 1 188.539682 247.117237 188.539682 247.117237 -0.000000 -0.000000 1.000000 1.000000 1.000000
269 1 51.632149 257.441894 51.632149 257.441894 0.000000 -0.000000 1.000000 1.000000 1.000000
270 1 95.988280 165.976054 95.988280 165.976054 -0.000000 0.000000 1.000000 1.000000 1.000000
271 1 264.546828 37.775855 -2.844843 37.775855 0.000000 0.000000 1.000000 1.000000 1.000000
272 1 71.398785 161.459879 71.398785 161.459879 -0.000000 -0.000000 1.000000 1.000000 1.000000
273 1 185.183498 186.170378 185.183498 186.170378 -0.000000 -0.000000 1.000000 1.000000 1.000000
274 1 40.044214 106.816629 40.044214 106.816629 -0.000000 -0.000000 1.000000 1.000000 1.000000
275 1 22.229946 231.289056 22.229946 231.289056 0.000000 0.000000 1.000000 1.000000 1.000000
276 1 198.262407 150.972064 198.262407 150.972064 0.000000 0.000000 1.000000 1.000000 1.000000
277 1 155.734071 154.729759 155.734071 154.729759 0.000000 -0.000000 1.000000 1.000000 1.000000
278 1 107.863088 80.387252 107.863088 80.387252 0.000000 0.000000 1.000000 1.000000 1.000000
279 1 158.147439 248.348931 158.147439 248.348931 0.000000 0.000000 1.000000 1.000000 1.000000
280 1 98.749729 151.061785 98.749729 151.061785 -0.000000 -0.000000 1.000000 1.000000 1.000000
281 1 107.940363 254.222703 107.940363 -13.168968 -0.000000 -0.000000 1.000000 1.000000 1.000000
282 1 130.354076 215.815723 130.354076 215.815723 -0.000000 0.000000 1.000000 1.000000 1.000000
283 1 90.628856 240.142621 90.628856 240.142621 -0.000000 0.000000 1.000000 1.000000 1.000000
284 1 12.898854 26.913033 12.898854 26.913033 -0.000000 0.000000 1.000000 1.000000 1.000000
285 1 196.355409 54.027461 196.355409 54.027461 0.000000 0.000000 1.000000 1.000000 1.000000
286 1 125.981403 77.305578 125.981403 77.305578 -0.000000 -0.000000 1.000000 1.000000 1.000000
287 1 234.621597 205.007479 234.621597 205.007479 0.000000 -0.000000 1.000000 1.000000 1.000000
288 1 81.978916 141.184136 81.978916 141.184136 -0.000000 0.000000 1.000000 1.000000 1.000000
289 1 34.838135 77.706021 34.838135 77.706021 -0.000000 -0.000000 1.000000 1.000000 1.000000
290 1 264.677081 140.130305 264.677081 140.130305 -0.000000 0.000000 1.000000 1.000000 1.000000
291 1 123.013097 23.529970 123.013097 23.529970 -0.000000 -0.000000 1.000000 1.000000 1.000000
292 1 234.400222 12.007928 234.400222 12.007928 -0.000000 0.000000 1.000000 1.000000 1.000000
293 1 209.421275 148.744987 209.421275 148.744987 0.000000 -0.000000 1.000000 1.000000 1.000000
294 1 134.544870 142.223629 134.544870 142.223629 0.000000 0.000000 1.000000 1.000000 1.000000
295 1 41.767922 25.707148 41.767922 25.707148 -0.000000 -0.000000 1.000000 1.000000 1.000000
296 1 149.521777 178.120277 149.521777 178.120277 0.000000 -0.000000 1.000000 1.000000 1.000000
297 1 148.539238 56.407041 148.539238 56.407041 -0.000000 -0.000000 1.000000 1.000000 1.000000
298 1 49.790598 215.187400 49.790598 215.187400 -0.000000 -0.000000 1.000000 1.000000 1.000000
299 1 264.350281 124.530638 264.350281 124.530638 0.000000 -0.000000 1.000000 1.000000 1.000000
300 1 53.266589 95.424595 53.266589 95.424595 -0.000000 0.000000 1.000000 1.000000 1.000000
301 1 196.659416 202.039546 196.659416 202.039546 -0.000000 0.000000 1.000000 1.000000 1.000000
302 1 107.548671 264.217773 107.548671 264.217773 -0.000000 0.000000 1.000000 1.000000 1.000000
303 1 44.658109 151.823901 44.658109 151.823901 0.000000 -0.000000 1.000000 1.000000 1.000000
304 1 111.978223 84.759495 111.978223 84.759495 0.000000 0.000000 1.000000 1.000000 1.000000
305 1 25.610560 187.192082 25.610560 187.192082 0.000000 0.000000 1.000000 1.000000 1.000000
306 1 172.135990 137.189737 172.135990 137.189737 -0.000000 0.000000 1.000000 1.000000 1.000000
307 1 141.597292 157.158203 141.597292 157.158203 -0.000000 -0.000000 1.000000 1.000000 1.000000
308 1 182.183464 53.928977 182.183464 53.928977 0.000000 0.000000 1.000000 1.000000 1.000000
309 1 222.502466 32.465700 222.502466 32.465700 -0.000000 0.000000 1.000000 1.000000 1.000000
310 1 202.324781 183.405109 202.324781 183.405109 0.000000 0.000000 1.000000 1.000000 1.000000
311 1 238.191916 86.613366 238.191916 86.613366 0.000000 0.000000 1.000000 1.000000 1.000000
312 1 155.066068 74.554686 155.066068 74.554686 0.000000 -0.000000 1.000000 1.000000 1.000000
313 1 193.636551 231.220478 193.636551 231.220478 -0.000000 -0.000000 1.000000 1.000000 1.000000
314 1 230.235716 5.923435 230.235716 273.315106 0.000000 -0.000000 1.000000 1.000000 1.000000
315 1 52.268212 159.450423 52.268212 159.450423 -0.000000 0.000000 1.000000 1.000000 1.000000
316 1 122.800641 182.548948 122.800641 182.548948 -0.000000 -0.000000 1.000000 1.000000 1.000000