ITEM: TIMESTEP
2200.000000
ITEM: NUMBER OF ATOMS
5000
ITEM: BOX BOUNDS xy xz yz
0 283.489581 0
0 283.489581 0
0 2 0
ITEM: ATOMS id type x y xu yu vx vy radius m z
0 1 273.495715 215.540556 273.495715 215.540556 -0.000000 0.000000 1.000000 1.000000 1.000000
1 1 139.834471 277.285949 139.834471 -6.203632 -0.000000 -0.000000 1.000000 1.000000 1.000000
2 1 44.216594 281.825870 44.216594 281.825870 -0.000000 -0.000000 1.000000 1.000000 1.000000
3 1 18.959597 175.251438 302.449178 175.251438 0.000000 -0.000000 1.000000 1.000000 1.000000
4 1 208.187664 253.725006 208.187664 253.725006 -0.000000 -0.000000 1.000000 1.000000 1.000000
5 1 86.211305 195.217712 86.211305 195.217712 0.000000 -0.000000 1.000000 1.000000 1.000000
6 1 222.882702 232.925223 222.882702 232.925223 0.000000 0.000000 1.000000 1.000000 1.000000
7 1 221.131338 50.812796 221.131338 50.812796 -0.000000 -0.000000 1.000000 1.000000 1.000000
8 1 0.100875 234.558831 283.590456 234.558831 0.000000 -0.000000 1.000000 1.000000 1.000000
9 1 73.448968 10.455452 73.448968 10.455452 -0.000000 -0.000000 1.000000 1.000000 1.000000
10 1 71.514377 83.573798 71.514377 83.573798 0.000000 0.000000 1.000000 1.000000 1.000000
11 1 170.700010 56.552220 170.700010 56.552220 -0.000000 -0.000000 1.000000 1.000000 1.000000
12 1 230.165754 87.274625 230.165754 87.274625 -0.000000 0.000000 1.000000 1.000000 1.000000
13 1 169.613513 249.032164 169.613513 249.032164 0.000000 -0.000000 1.000000 1.000000 1.000000
14 1 179.183001 7.741647 179.183001 7.741647 -0.000000 0.000000 1.000000 1.000000 1.000000
15 1 110.177636 123.969796 110.177636 123.969796 -0.000000 -0.000000 1.000000 1.000000 1.000000
16 1 68.707272 174.539988 68.707272 174.539988 -0.000000 0.000000 1.000000 1.000000 1.000000
17 1 248.430254 54.728990 248.430254 54.728990 0.000000 0.000000 1.000000 1.000000 1.000000
18 1 94.449480 257.780656 94.449480 257.780656 -0.000000 0.000000 1.000000 1.000000 1.000000
19 1 23.969392 153.117704 23.969392 153.117704 -0.000000 0.000000 1.000000 1.000000 1.000000
20 1 224.532704 139.627987 224.532704 139.627987 -0.000000 -0.000000 1.000000 1.000000 1.000000
21 1 118.462212 148.998640 118.462212 148.998640 -0.000000 0.000000 1.000000 1.000000 1.000000
22 1 4.827471 81.924147 4.827471 81.924147 0.000000 0.000000 1.000000 1.000000 1.000000
23 1 114.488271 152.711702 114.488271 152.711702 0.000000 -0.000000 1.000000 1.000000 1.000000
24 1 88.574372 155.680394 88.574372 155.680394 0.000000 0.000000 1.000000 1.000000 1.000000
25 1 100.995280 9.941615 100.995280 9.941615 0.000000 -0.000000 1.000000 1.000000 1.000000
26 1 37.039290 164.115927 37.039290 164.115927 -0.000000 -0.000000 1.000000 1.000000 1.000000
27 1 26.630309 86.522704 26.630309 86.522704 -0.000000 -0.000000 1.000000 1.000000 1.000000
28 1 226.272918 72.196106 226.272918 72.196106 0.000000 -0.000000 1.000000 1.000000 1.000000
29 1 183.112178 78.568359 183.112178 78.568359 -0.000000 0.000000 1.000000 1.000000 1.000000
30 1 108.753488 269.100568 108.753488 269.100568 -0.000000 0.000000 1.000000 1.000000 1.000000
31 1 248.059218 100.770863 248.059218 100.770863 -0.000000 -0.000000 1.000000 1.000000 1.000000
32 1 90.587719 246.753247 90.587719 246.753247 -0.000000 0.000000 1.000000 1.000000 1.000000
33 1 84.279956 204.734261 84.279956 204.734261 -0.000000 -0.000000 1.000000 1.000000 1.000000
34 1 79.520254 39.275767 79.520254 39.275767 0.000000 0.000000 1.000000 1.000000 1.000000
35 1 236.574864 151.069141 236.574864 151.069141 0.000000 -0.000000 1.000000 1.000000 1.000000
36 1 166.530511 56.291237 166.530511 56.291237 -0.000000 -0.000000 1.000000 1.000000 1.000000
37 1 151.557446 199.213573 151.557446 199.213573 -0.000000 0.000000 1.000000 1.000000 1.000000
38 1 281.647006 279.064320 281.647006 279.064320 0.000000 0.000000 1.000000 1.000000 1.000000
39 1 120.764468 199.111017 120.764468 199.111017 -0.000000 -0.000000 1.000000 1.000000 1.000000
40 1 213.516962 238.865532 213.516962 238.865532 -0.000000 0.000000 1.000000 1.000000 1.000000
41 1 25.073483 44.108175 25.073483 44.108175 -0.000000 0.000000 1.000000 1.000000 1.000000
42 1 43.543320 107.104522 43.543320 107.104522 -0.000000 -0.000000 1.000000 1.000000 1.000000
43 1 94.916556 157.027971 94.916556 157.027971 -0.000000 0.000000 1.000000 1.000000 1.000000
44 1 232.856385 261.815023 232.856385 261.815023 -0.000000 -0.000000 1.000000 1.000000 1.000000
45 1 199.084561 1.475769 199.084561 284.965350 0.000000 -0.000000 1.000000 1.000000 1.000000
46 1 133.461383 223.795731 133.461383 223.795731 0.000000 0.000000 1.000000 1.000000 1.000000
47 1 246.261719 161.805120 246.261719 161.805120 -0.000000 -0.000000 1.000000 1.000000 1.000000
48 1 53.234266 18.995895 53.234266 302.485476 0.000000 0.000000 1.000000 1.000000 1.000000
49 1 67.529661 64.449248 67.529661 64.449248 0.000000 0.000000 1.000000 1.000000 1.000000
50 1 21.729517 15.689731 21.729517 15.689731 -0.000000 0.000000 1.000000 1.000000 1.000000
51 1 223.532503 163.943861 223.532503 163.943861 -0.000000 0.000000 1.000000 1.000000 1.000000
52 1 280.766436 231.533088 280.766436 231.533088 0.000000 -0.000000 1.000000 1.000000 1.000000
53 1 198.822713 3.750197 198.822713 3.750197 0.000000 0.000000 1.000000 1.000000 1.000000
54 1 184.321349 1.567652 184.321349 1.567652 0.000000 0.000000 1.000000 1.000000 1.000000
55 1 180.470982 156.493005 180.470982 156.493005 0.000000 -0.000000 1.000000 1.000000 1.000000
56 1 202.815950 14.330998 202.815950 14.330998 0.000000 0.000000 1.000000 1.000000 1.000000
57 1 8.082042 180.063369 291.571623 180.063369 -0.000000 0.000000 1.000000 1.000000 1.000000
58 1 120.664627 247.485933 120.664627 247.485933 0.000000 0.000000 1.000000 1.000000 1.000000
59 1 73.283658 162.766210 73.283658 162.766210 -0.000000 0.000000 1.000000 1.000000 1.000000
60 1 265.584875 33.034526 -17.904706 33.034526 -0.000000 -0.000000 1.000000 1.000000 1.000000
61 1 244.357818 276.356131 244.357818 276.356131 0.000000 0.000000 1.000000 1.000000 1.000000
62 1 209.841081 126.606659 209.841081 126.606659 0.000000 0.000000 1.000000 1.000000 1.000000
63 1 117.807306 58.295469 117.807306 58.295469 -0.000000 -0.000000 1.000000 1.000000 1.000000
64 1 60.633165 143.299086 60.633165 143.299086 -0.000000 0.000000 1.000000 1.000000 1.000000
65 1 20.774705 211.364265 20.774705 211.364265 -0.000000 -0.000000 1.000000 1.000000 1.000000
66 1 181.415042 209.599677 181.415042 209.599677 -0.000000 0.000000 1.000000 1.000000 1.000000
67 1 164.675096 66.466960 164.675096 66.466960 0.000000 0.000000 1.000000 1.000000 1.000000
68 1 124.952112 273.962960 124.952112 273.962960 0.000000 -0.000000 1.000000 1.000000 1.000000
69 1 267.446827 177.388158 267.446827 177.388158 0.000000 -0.000000 1.000000 1.000000 1.000000
70 1 7.503595 227.041539 7.503595 227.041539 -0.000000 0.000000 1.000000 1.000000 1.000000
71 1 185.509534 219.901612 185.509534 219.901612 0.000000 0.000000 1.000000 1.000000 1.000000
72 1 28.241015 179.946064 28.241015 179.946064 -0.000000 -0.000000 1.000000 1.000000 1.000000
73 1 137.816005 151.097123 137.816005 151.097123 0.000000 -0.000000 1.000000 1.000000 1.000000
74 1 126.693784 180.768953 126.693784 180.768953 -0.000000 0.000000 1.000000 1.000000 1.000000
75 1 164.983184 2.590173 164.983184 2.590173 0.000000 -0.000000 1.000000 1.000000 1.000000
76 1 16.441136 141.796413 299.930717 141.796413 0.000000 -0.000000 1.000000 1.000000 1.000000
77 1 233.291735 50.386173 233.291735 50.386173 0.000000 -0.000000 1.000000 1.000000 1.000000
78 1 18.873047 69.409522 18.873047 69.409522 -0.000000 0.000000 1.000000 1.000000 1.000000
79 1 128.373745 202.392114 128.373745 202.392114 -0.000000 -0.000000 1.000000 1.000000 1.000000
80 1 87.668394 130.172658 87.668394 130.172658 0.000000 -0.000000 1.000000 1.000000 1.000000
81 1 230.689875 46.707886 230.689875 46.707886 0.000000 0.000000 1.000000 1.000000 1.000000
82 1 272.467532 240.458651 272.467532 240.458651 0.000000 -0.000000 1.000000 1.000000 1.000000
83 1 12.633502 67.517888 296.123083 67.517888 -0.000000 0.000000 1.000000 1.000000 1.000000
84 1 172.265184 249.664071 172.265184 249.664071 -0.000000 -0.000000 1.000000 1.000000 1.000000
85 1 243.207881 134.999245 243.207881 134.999245 -0.000000 0.000000 1.000000 1.000000 1.000000
86 1 239.954181 276.807270 239.954181 276.807270 -0.000000 0.000000 1.000000 1.000000 1.000000
87 1 196.443977 43.012728 196.443977 43.012728 0.000000 0.000000 1.000000 1.000000 1.000000
88 1 115.504443 253.168649 115.504443 253.168649 -0.000000 -0.000000 1.000000 1.000000 1.000000
89 1 9.024107 121.425576 292.513688 121.425576 -0.000000 -0.000000 1.000000 1.000000 1.000000
90 1 240.226842 173.531073 240.226842 173.531073 -0.000000 0.000000 1.000000 1.000000 1.000000
91 1 160.428811 216.200417 160.428811 216.200417 -0.000000 0.000000 1.000000 1.000000 1.000000
92 1 72.219378 184.252238 72.219378 184.252238 0.000000 -0.000000 1.000000 1.000000 1.000000
93 1 265.006145 218.947665 265.006145 218.947665 0.000000 -0.000000 1.000000 1.000000 1.000000
94 1 239.234133 123.184179 239.234133 123.184179 -0.000000 0.000000 1.000000 1.000000 1.000000
95 1 193.340295 101.273587 193.340295 101.273587 0.000000 0.000000 1.000000 1.000000 1.000000
96 1 39.814830 2.570004 39.814830 2.570004 -0.000000 0.000000 1.000000 1.000000 1.000000
97 1 122.224969 68.421510 122.224969 68.421510 -0.000000 -0.000000 1.000000 1.000000 1.000000
98 1 14.617594 12.385901 14.617594 12.385901 0.000000 -0.000000 1.000000 1.000000 1.000000
99 1 91.298047 279.932506 91.298047 279.932506 -0.000000 -0.000000 1.000000 1.000000 1.000000
100 1 37.109029 47.229862 37.109029 47.229862 -0.000000 -0.000000 1.000000 1.000000 1.000000
101 1 283.356791 220.955142 -0.132790 220.955142 -0.000000 -0.000000 1.000000 1.000000 1.000000
102 1 32.338816 282.119779 32.338816 282.119779 -0.000000 0.000000 1.000000 1.000000 1.000000
103 1 262.897083 271.418880 262.897083 271.418880 -0.000000 -0.000000 1.000000 1.000000 1.000000
104 1 46.190828 43.403662 46.190828 43.403662 0.000000 -0.000000 1.000000 1.000000 1.000000
105 1 270.332621 103.620650 -13.156960 103.620650 0.000000 0.000000 1.000000 1.000000 1.000000
106 1 74.958849 122.490132 74.958849 122.490132 0.000000 0.000000 1.000000 1.000000 1.000000
107 1 29.066048 240.260900 312.555629 240.260900 -0.000000 0.000000 1.000000 1.000000 1.000000
108 1 84.468601 241.231429 84.468601 241.231429 -0.000000 0.000000 1.000000 1.000000 1.000000
109 1 244.926968 250.261656 244.926968 250.261656 0.000000 0.000000 1.000000 1.000000 1.000000
110 1 221.586473 11.171518 221.586473 294.661099 -0.000000 0.000000 1.000000 1.000000 1.000000
111 1 91.862928 171.159375 91.862928 171.159375 0.000000 -0.000000 1.000000 1.000000 1.000000
112 1 95.584328 193.361301 95.584328 193.361301 0.000000 -0.000000 1.000000 1.000000 1.000000
113 1 67.964025 279.375628 67.964025 279.375628 0.000000 -0.000000 1.000000 1.000000 1.000000
114 1 194.723759 185.409249 194.723759 185.409249 0.000000 -0.000000 1.000000 1.000000 1.000000
115 1 172.180655 216.367984 172.180655 216.367984 0.000000 0.000000 1.000000 1.000000 1.000000
116 1 32.014635 0.906515 32.014635 284.396096 0.000000 0.000000 1.000000 1.000000 1.000000
117 1 91.233765 142.028803 91.233765 142.028803 0.000000 0.000000 1.000000 1.000000 1.000000
118 1 219.835564 208.294880 219.835564 208.294880 0.000000 0.000000 1.000000 1.000000 1.000000
119 1 50.476004 51.220904 50.476004 51.220904 0.000000 -0.000000 1.000000 1.000000 1.000000
120 1 279.912624 55.347972 -3.576957 55.347972 -0.000000 0.000000 1.000000 1.000000 1.000000
121 1 142.032907 189.313847 142.032907 189.313847 -0.000000 0.000000 1.000000 1.000000 1.000000
122 1 154.292544 26.957223 154.292544 26.957223 -0.000000 0.000000 1.000000 1.000000 1.000000
123 1 186.921332 273.006522 186.921332 273.006522 0.000000 -0.000000 1.000000 1.000000 1.000000
124 1 273.440371 249.611263 273.440371 249.611263 0.000000 -0.000000 1.000000 1.000000 1.000000
125 1 30.527389 104.769522 30.527389 104.769522 -0.000000 0.000000 1.000000 1.000000 1.000000
126 1 34.563328 282.385045 34.563328 -1.104536 0.000000 -0.000000 1.000000 1.000000 1.000000
127 1 119.144154 0.269646 119.144154 0.269646 0.000000 -0.000000 1.000000 1.000000 1.000000
128 1 161.775087 189.083176 161.775087 189.083176 -0.000000 -0.000000 1.000000 1.000000 1.000000
129 1 122.530960 173.724321 122.530960 173.724321 0.000000 0.000000 1.000000 1.000000 1.000000
130 1 121.893456 0.575349 121.893456 284.064930 0.000000 0.000000 1.000000 1.000000 1.000000
131 1 36.096939 189.007085 36.096939 189.007085 0.000000 -0.000000 1.000000 1.000000 1.000000
132 1 230.356098 243.649382 230.356098 243.649382 0.000000 -0.000000 1.000000 1.000000 1.000000
133 1 140.234463 47.848036 140.234463 47.848036 -0.000000 -0.000000 1.000000 1.000000 1.000000
134 1 188.674988 63.916817 188.674988 63.916817 -0.000000 0.000000 1.000000 1.000000 1.000000
135 1 238.381804 70.858987 238.381804 70.858987 0.000000 -0.000000 1.000000 1.000000 1.000000
136 1 77.089759 109.042058 77.089759 109.042058 -0.000000 0.000000 1.000000 1.000000 1.000000
137 1 12.470254 147.088572 12.470254 147.088572 0.000000 -0.000000 1.000000 1.000000 1.000000
138 1 148.504931 16.516770 148.504931 16.516770 0.000000 -0.000000 1.000000 1.000000 1.000000
139 1 170.513267 181.930742 170.513267 181.930742 0.000000 0.000000 1.000000 1.000000 1.000000
140 1 274.977851 32.615079 274.977851 32.615079 0.000000 -0.000000 1.000000 1.000000 1.000000
141 1 66.142240 60.095039 66.142240 60.095039 -0.000000 -0.000000 1.000000 1.000000 1.000000
142 1 281.859100 165.261654 -1.630481 165.261654 -0.000000 -0.000000 1.000000 1.000000 1.000000
143 1 107.744127 219.899105 107.744127 219.899105 0.000000 0.000000 1.000000 1.000000 1.000000
144 1 93.680908 44.830023 93.680908 44.830023 -0.000000 0.000000 1.000000 1.000000 1.000000
145 1 29.943743 107.167367 29.943743 107.167367 -0.000000 -0.000000 1.000000 1.000000 1.000000
146 1 66.457863 0.337969 66.457863 0.337969 0.000000 0.000000 1.000000 1.000000 1.000000
147 1 140.853368 268.445755 140.853368 268.445755 -0.000000 -0.000000 1.000000 1.000000 1.000000
148 1 15.286368 201.507095 15.286368 201.507095 0.000000 0.000000 1.000000 1.000000 1.000000
149 1 158.099951 62.119663 158.099951 62.119663 0.000000 -0.000000 1.000000 1.000000 1.000000
150 1 215.010530 135.934902 215.010530 135.934902 0.000000 -0.000000 1.000000 1.000000 1.000000
151 1 224.135209 245.556623 224.135209 245.556623 -0.000000 0.000000 1.000000 1.000000 1.000000
152 1 151.988957 147.828932 151.988957 147.828932 0.000000 0.000000 1.000000 1.000000 1.000000
153 1 16.116617 158.690447 16.116617 158.690447 -0.000000 0.000000 1.000000 1.000000 1.000000
154 1 73.163515 75.658467 73.163515 75.658467 0.000000 0.000000 1.000000 1.000000 1.000000
155 1 113.726863 162.320692 113.726863 162.320692 -0.000000 0.000000 1.000000 1.000000 1.000000
156 1 147.129467 165.461876 147.129467 165.461876 0.000000 -0.000000 1.000000 1.000000 1.000000
157 1 7.863253 89.833027 7.863253 89.833027 -0.000000 -0.000000 1.000000 1.000000 1.000000
158 1 259.458981 171.914502 259.458981 171.914502 0.000000 -0.000000 1.000000 1.000000 1.000000
159 1 192.012345 66.178470 192.012345 66.178470 0.000000 0.000000 1.000000 1.000000 1.000000
160 1 82.087091 130.589880 82.087091 130.589880 0.000000 0.000000 1.000000 1.000000 1.000000
161 1 177.991294 14.996360 177.991294 298.485941 0.000000 -0.000000 1.000000 1.000000 1.000000
162 1 233.108882 110.852523 233.108882 110.852523 -0.000000 0.000000 1.000000 1.000000 1.000000
163 1 38.719942 177.922504 38.719942 177.922504 0.000000 -0.000000 1.000000 1.000000 1.000000
164 1 109.675095 182.143904 109.675095 182.143904 -0.000000 -0.000000 1.000000 1.000000 1.000000
165 1 228.763135 228.604588 228.763135 228.604588 0.000000 -0.000000 1.000000 1.000000 1.000000
166 1 43.909312 68.898237 43.909312 68.898237 -0.000000 0.000000 1.000000 1.000000 1.000000
167 1 21.938770 147.035424 21.938770 147.035424 0.000000 0.000000 1.000000 1.000000 1.000000
168 1 132.706778 258.181549 132.706778 258.181549 0.000000 -0.000000 1.000000 1.000000 1.000000
169 1 131.445966 39.122660 131.445966 39.122660 0.000000 0.000000 1.000000 1.000000 1.000000
170 1 71.538899 188.543177 71.538899 188.543177 0.000000 -0.000000 1.000000 1.000000 1.000000
171 1 142.081025 226.267891 142.081025 226.267891 0.000000 0.000000 1.000000 1.000000 1.000000
172 1 190.119092 207.371498 190.119092 207.371498 -0.000000 -0.000000 1.000000 1.000000 1.000000
173 1 162.533920 4.514750 162.533920 4.514750 0.000000 -0.000000 1.000000 1.000000 1.000000
174 1 269.081673 28.616259 -14.407908 28.616259 -0.000000 0.000000 1.000000 1.000000 1.000000
175 1 128.191357 93.179922 128.191357 93.179922 -0.000000 -0.000000 1.000000 1.000000 1.000000
176 1 213.176385 278.953988 213.176385 -4.535593 -0.000000 -0.000000 1.000000 1.000000 1.000000
177 1 14.961589 255.186375 14.961589 255.186375 -0.000000 0.000000 1.000000 1.000000 1.000000
178 1 71.881497 235.298159 71.881497 235.298159 -0.000000 -0.000000 1.000000 1.000000 1.000000
179 1 261.146329 216.972968 -22.343252 216.972968 -0.000000 0.000000 1.000000 1.000000 1.000000
180 1 180.214094 262.783492 180.214094 262.783492 -0.000000 0.000000 1.000000 1.000000 1.000000
181 1 264.213800 55.967521 264.213800 55.967521 0.000000 -0.000000 1.000000 1.000000 1.000000
182 1 261.527799 250.823077 261.527799 250.823077 -0.000000 -0.000000 1.000000 1.000000 1.000000
183 1 272.762173 31.150219 272.762173 31.150219 -0.000000 0.000000 1.000000 1.000000 1.000000
184 1 181.834553 260.817023 181.834553 260.817023 0.000000 -0.000000 1.000000 1.000000 1.000000
185 1 113.071516 36.836510 113.071516 320.326091 -0.000000 -0.000000 1.000000 1.000000 1.000000
186 1 24.815342 115.703512 24.815342 115.703512 0.000000 -0.000000 1.000000 1.000000 1.000000
187 1 186.893994 13.801110 186.893994 297.290691 0.000000 0.000000 1.000000 1.000000 1.000000
188 1 283.109137 167.986320 -0.380444 167.986320 0.000000 0.000000 1.000000 1.000000 1.000000
189 1 190.868313 147.041190 190.868313 147.041190 -0.000000 -0.000000 1.000000 1.000000 1.000000
190 1 224.079812 32.501876 224.079812 32.501876 -0.000000 0.000000 1.000000 1.000000 1.000000
191 1 9.408293 64.262707 9.408293 64.262707 -0.000000 -0.000000 1.000000 1.000000 1.000000
192 1 215.129920 170.364916 215.129920 170.364916 0.000000 0.000000 1.000000 1.000000 1.000000
193 1 79.054715 202.343182 79.054715 202.343182 0.000000 0.000000 1.000000 1.000000 1.000000
194 1 115.092339 69.318247 115.092339 69.318247 0.000000 0.000000 1.000000 1.000000 1.000000
195 1 265.068452 148.799952 265.068452 148.799952 0.000000 0.000000 1.000000 1.000000 1.000000
196 1 263.009498 181.989678 263.009498 181.989678 0.000000 0.000000 1.000000 1.000000 1.000000
197 1 142.695060 74.208842 142.695060 74.208842 0.000000 0.000000 1.000000 1.000000 1.000000
198 1 77.805805 183.667976 77.805805 183.667976 0.000000 -0.000000 1.000000 1.000000 1.000000
199 1 245.825255 4.725795 245.825255 4.725795 0.000000 -0.000000 1.000000 1.000000 1.000000
200 1 262.276689 231.396111 262.276689 231.396111 -0.000000 -0.000000 1.000000 1.000000 1.000000
201 1 194.882239 152.285619 194.882239 152.285619 0.000000 0.000000 1.000000 1.000000 1.000000
202 1 212.196756 267.353252 212.196756 267.353252 0.000000 0.000000 1.000000 1.000000 1.000000
203 1 20.598634 32.437306 20.598634 32.437306 0.000000 -0.000000 1.000000 1.000000 1.000000
204 1 127.227566 149.689605 127.227566 149.689605 -0.000000 -0.000000 1.000000 1.000000 1.000000
205 1 75.325312 75.457200 75.325312 75.457200 0.000000 0.000000 1.000000 1.000000 1.000000
206 1 229.042809 74.973661 229.042809 74.973661 0.000000 0.000000 1.000000 1.000000 1.000000
207 1 128.222495 106.397004 128.222495 106.397004 -0.000000 -0.000000 1.000000 1.000000 1.000000
208 1 6.007447 251.566673 289.497028 251.566673 0.000000 0.000000 1.000000 1.000000 1.000000
209 1 114.659851 281.428705 114.659851 -2.060876 0.000000 -0.000000 1.000000 1.000000 1.000000
210 1 57.015755 1.895421 57.015755 1.895421 -0.000000 0.000000 1.000000 1.000000 1.000000
211 1 97.816264 195.161515 97.816264 195.161515 -0.000000 -0.000000 1.000000 1.000000 1.000000
212 1 147.992532 179.192377 147.992532 179.192377 0.000000 0.000000 1.000000 1.000000 1.000000
213 1 163.889844 167.019536 163.889844 167.019536 0.000000 0.000000 1.000000 1.000000 1.000000
214 1 200.541562 29.948081 200.541562 29.948081 -0.000000 0.000000 1.000000 1.000000 1.000000
215 1 121.612696 97.679847 121.612696 97.679847 0.000000 -0.000000 1.000000 1.000000 1.000000
216 1 18.414985 26.884530 18.414985 310.374111 -0.000000 0.000000 1.000000 1.000000 1.000000
217 1 120.426083 262.731586 120.426083 262.731586 -0.000000 0.000000 1.000000 1.000000 1.000000
218 1 108.886420 135.421640 108.886420 135.421640 0.000000 0.000000 1.000000 1.000000 1.000000
219 1 231.698063 150.217073 231.698063 150.217073 -0.000000 -0.000000 1.000000 1.000000 1.000000
220 1 172.356114 187.181412 172.356114 187.181412 -0.000000 0.000000 1.000000 1.000000 1.000000
221 1 77.757810 280.845713 77.757810 280.845713 -0.000000 0.000000 1.000000 1.000000 1.000000
222 1 102.490769 3.658541 102.490769 287.148122 0.000000 0.000000 1.000000 1.000000 1.000000
223 1 161.553512 168.489597 161.553512 168.489597 0.000000 0.000000 1.000000 1.000000 1.000000
224 1 7.667442 27.644276 7.667442 27.644276 0.000000 -0.000000 1.000000 1.000000 1.000000
225 1 100.287185 41.551913 100.287185 41.551913 -0.000000 0.000000 1.000000 1.000000 1.000000
226 1 257.859841 206.479900 257.859841 206.479900 -0.000000 0.000000 1.000000 1.000000 1.000000
227 1 150.057274 45.864122 150.057274 45.864122 0.000000 0.000000 1.000000 1.000000 1.000000
228 1 11.050791 1.573580 11.050791 1.573580 -0.000000 0.000000 1.000000 1.000000 1.000000
229 1 5.341866 54.796570 5.341866 54.796570 -0.000000 -0.000000 1.000000 1.000000 1.000000
230 1 107.491169 72.577942 107.491169 72.577942 0.000000 0.000000 1.000000 1.000000 1.000000
231 1 73.714573 18.204078 73.714573 18.204078 -0.000000 0.000000 1.000000 1.000000 1.000000
232 1 282.204972 157.047760 -1.284609 157.047760 0.000000 0.000000 1.000000 1.000000 1.000000
233 1 121.542421 31.173684 121.542421 31.173684 -0.000000 0.000000 1.000000 1.000000 1.000000
234 1 158.744757 27.705308 158.744757 27.705308 -0.000000 0.000000 1.000000 1.000000 1.000000
235 1 183.135518 63.400904 183.135518 63.400904 -0.000000 -0.000000 1.000000 1.000000 1.000000
236 1 210.847404 107.144069 210.847404 107.144069 -0.000000 0.000000 1.000000 1.000000 1.000000
237 1 222.633353 187.021014 222.633353 187.021014 -0.000000 0.000000 1.000000 1.000000 1.000000
238 1 205.435333 280.354488 205.435333 280.354488 -0.000000 -0.000000 1.000000 1.000000 1.000000
239 1 254.281322 185.048650 254.281322 185.048650 -0.000000 0.000000 1.000000 1.000000 1.000000
240 1 79.632334 140.515483 79.632334 140.515483 -0.000000 -0.000000 1.000000 1.000000 1.000000
241 1 173.681164 33.863838 173.681164 33.863838 0.000000 -0.000000 1.000000 1.000000 1.000000
242 1 253.647354 180.474397 253.647354 180.474397 -0.000000 0.000000 1.000000 1.000000 1.000000
243 1 17.111404 271.554074 17.111404 271.554074 0.000000 -0.000000 1.000000 1.000000 1.000000
244 1 68.287457 55.032938 68.287457 55.032938 -0.000000 -0.000000 1.000000 1.000000 1.000000
245 1 50.538309 45.078484 50.538309 45.078484 0.000000 -0.000000 1.000000 1.000000 1.000000
246 1 237.197479 280.750141 237.197479 280.750141 0.000000 -0.000000 1.000000 1.000000 1.000000
247 1 18.170444 107.242995 18.170444 107.242995 -0.000000 -0.000000 1.000000 1.000000 1.000000
248 1 47.766372 65.831279 47.766372 65.831279 -0.000000 -0.000000 1.000000 1.000000 1.000000
249 1 226.840611 109.574943 226.840611 109.574943 0.000000 -0.000000 1.000000 1.000000 1.000000
250 1 77.412180 37.755588 77.412180 37.755588 -0.000001 0.000000 1.000000 1.000000 1.000000
251 1 94.101957 199.458450 94.101957 199.458450 0.000000 0.000000 1.000000 1.000000 1.000000
252 1 218.465120 145.404239 218.465120 145.404239 -0.000000 -0.000000 1.000000 1.000000 1.000000
253 1 137.724262 199.710370 137.724262 199.710370 -0.000000 0.000000 1.000000 1.000000 1.000000
254 1 77.667519 159.638361 77.667519 159.638361 -0.000000 0.000000 1.000000 1.000000 1.000000
255 1 2.626489 137.893066 286.116070 137.893066 0.000000 0.000000 1.000000 1.000000 1.000000
256 1 81.368297 150.252566 81.368297 150.252566 -0.000000 -0.000000 1.000000 1.000000 1.000000
257 1 166.883691 221.775880 166.883691 221.775880 -0.000000 0.000000 1.000000 1.000000 1.000000
258 1 143.813319 44.807968 143.813319 44.807968 0.000000 -0.000000 1.000000 1.000000 1.000000
259 1 156.557911 139.064872 156.557911 139.064872 0.000000 -0.000000 1.000000 1.000000 1.000000
260 1 242.131373 102.118804 242.131373 102.118804 -0.000000 0.000000 1.000000 1.000000 1.000000
261 1 19.835601 279.995388 19.835601 279.995388 -0.000000 0.000000 1.000000 1.000000 1.000000
262 1 242.989622 262.509986 242.989622 262.509986 0.000000 0.000000 1.000000 1.000000 1.000000
263 1 112.697458 123.616843 112.697458 123.616843 -0.000000 0.000000 1.000000 1.000000 1.000000
264 1 7.218089 269.091218 290.707670 269.091218 0.000000 0.000000 1.000000 1.000000 1.000000
265 1 245.302657 48.037918 245.302657 48.037918 0.000000 -0.000000 1.000000 1.000000 1.000000
266 1 154.299552 123.196321 154.299552 123.196321 -0.000000 0.000000 1.000000 1.000000 1.000000
267 1 5.427250 36.839559 5.427250 36.839559 0.000000 0.000000 1.000000 1.000000 1.000000
268 1 69.863693 235.428902 69.863693 235.428902 -0.000000 -0.000000 1.000000 1.000000 1.000000
269 1 245.139419 72.040506 245.139419 72.040506 -0.000000 0.000000 1.000000 1.000000 1.000000
270 1 110.979150 165.734033 110.979150 165.734033 0.000000 0.000000 1.000000 1.000000 1.000000
271 1 159.639987 210.880510 159.639987 210.880510 -0.000000 0.000000 1.000000 1.000000 1.000000
272 1 36.702817 105.839530 36.702817 105.839530 -0.000000 -0.000000 1.000000 1.000000 1.000000
273 1 115.501908 35.398970 115.501908 35.398970 0.000000 0.000000 1.000000 1.000000 1.000000
274 1 19.577590 264.673179 19.577590 264.673179 -0.000000 -0.000000 1.000000 1.000000 1.000000
275 1 181.470901 206.285311 181.470901 206.285311 0.000000 0.000000 1.000000 1.000000 1.000000
276 1 125.518229 98.341886 125.518229 98.341886 -0.000000 -0.000000 1.000000 1.000000 1.000000
277 1 276.691547 23.318360 276.691547 23.318360 0.000000 -0.000000 1.000000 1.000000 1.000000
278 1 57.692336 272.243445 57.692336 272.243445 0.000000 0.000000 1.000000 1.000000 1.000000
279 1 101.400593 281.431873 101.400593 281.431873 0.000000 0.000000 1.000000 1.000000 1.000000
280 1 241.338536 156.346626 241.338536 156.346626 -0.000000 -0.000000 1.000000 1.000000 1.000000
281 1 47.774169 243.329134 47.774169 243.329134 0.000000 0.000000 1.000000 1.000000 1.000000
282 1 245.857233 79.584099 245.857233 79.584099 0.000000 -0.000000 1.000000 1.000000 1.000000
283 1 17.401586 41.674554 17.401586 41.674554 -0.000000 -0.000000 1.000000 1.000000 1.000000
284 1 248.737450 10.541065 248.737450 10.541065 0.000000 -0.000000 1.000000 1.000000 1.000000
285 1 226.582569 79.183214 226.582569 79.183214 -0.000000 -0.000000 1.000000 1.000000 1.000000
286 1 158.383342 145.128683 158.383342 145.128683 0.000000 0.000000 1.000000 1.000000 1.000000
287 1 57.817669 161.844522 57.817669 161.844522 0.000000 0.000000 1.000000 1.000000 1.000000
288 1 93.012906 192.962757 93.012906 192.962757 -0.000000 0.000000 1.000000 1.000000 1.000000
289 1 274.712717 23.713424 -8.776864 23.713424 0.000000 -0.000000 1.000000 1.000000 1.000000
290 1 43.932999 30.337521 43.932999 30.337521 -0.000000 0.000000 1.000000 1.000000 1.000000
291 1 267.255524 188.367642 267.255524 188.367642 0.000000 0.000000 1.000000 1.000000 1.000000
292 1 145.165689 174.348774 145.165689 174.348774 0.000000 -0.000000 1.000000 1.000000 1.000000
293 1 189.727311 125.013325 189.727311 125.013325 0.000000 0.000000 1.000000 1.000000 1.000000
294 1 257.207149 59.370808 257.207149 59.370808 -0.000000 0.000000 1.000000 1.000000 1.000000
295 1 222.856962 5.761404 222.856962 5.761404 -0.000000 -0.000000 1.000000 1.000000 1.000000
296 1 19.358088 153.442468 19.358088 153.442468 -0.000000 -0.000000 1.000000 1.000000 1.000000
297 1 199.658251 209.405505 199.658251 209.405505 -0.000000 0.000000 1.000000 1.000000 1.000000
298 1 158.815387 137.883121 158.815387 137.883121 0.000000 -0.000000 1.000000 1.000000 1.000000
299 1 56.708480 260.869632 56.708480 260.869632 0.000000 0.000000 1.000000 1.000000 1.000000
300 1 27.832154 139.834006 27.832154 139.834006 0.000000 0.000000 1.000000 1.000000 1.000000
301 1 159.183954 161.073762 159.183954 161.073762 -0.000000 0.000000 1.000000 1.000000 1.000000
302 1 107.239870 34.891006 107.239870 34.891006 -0.000000 0.000000 1.000000 1.000000 1.000000
303 1 268.101223 128.874123 268.101223 128.874123 0.000000 0.000000 1.000000 1.000000 1.000000
304 1 246.293189 31.630524 246.293189 31.630524 0.000000 -0.000000 1.000000 1.000000 1.000000
305 1 253.821273 134.430449 253.821273 134.430449 -0.000000 -0.000000 1.000000 1.000000 1.000000
306 1 137.681754 59.368414 137.681754 59.368414 -0.000000 -0.000000 1.000000 1.000000 1.000000
307 1 233.177833 219.144079 233.177833 219.144079 -0.000000 -0.000000 1.000000 1.000000 1.000000
308 1 247.878208 248.748923 247.878208 248.748923 0.000000 -0.000000 1.000000 1.000000 1.000000
309 1 18.749613 20.053258 18.749613 20.053258 0.000000 -0.000000 1.000000 1.000000 1.000000
310 1 107.309482 247.814931 107.309482 247.814931 0.000000 0.000000 1.000000 1.000000 1.000000
311 1 265.355668 204.344571 -18.133913 204.344571 0.000000 -0.000000 1.000000 1.000000 1.000000
312 1 22.649796 165.309203 22.649796 165.309203 0.000000 -0.000000 1.000000 1.000000 1.000000
313 1 37.890783 91.038485 37.890783 91.038485 0.000000 0.000000 1.000000 1.000000 1.000000
314 1 233.767956 183.227083 233.767956 183.227083 0.000000 0.000000 1.000000 1.000000 1.000000
315 1 31.464549 277.041912 31.464549 277.041912 -0.000000 0.000000 1.000000 1.000000 1.000000
316 1 97.505402 11.893139 97.505402 11.893139 0.000000 0.000000 1.000000 1.000000 1.000000