ITEM: TIMESTEP
1700.000000
ITEM: NUMBER OF ATOMS
5000
ITEM: BOX BOUNDS xy xz yz
0 242.016674 0
0 242.016674 0
0 2 0
ITEM: ATOMS id type x y xu yu vx vy radius m z
0 1 58.846739 44.979957 58.846739 44.979957 -0.000000 0.000000 1.000000 1.000000 1.000000
1 1 123.881749 111.314774 123.881749 111.314774 -0.000000 0.000000 1.000000 1.000000 1.000000
2 1 203.654256 30.999909 203.654256 30.999909 -0.000000 -0.000001 1.000000 1.000000 1.000000
3 1 41.123134 46.984471 41.123134 46.984471 0.000000 -0.000000 1.000000 1.000000 1.000000
4 1 177.732550 108.699795 177.732550 108.699795 0.000000 0.000000 1.000000 1.000000 1.000000
5 1 142.616435 207.309355 142.616435 207.309355 -0.000000 -0.000000 1.000000 1.000000 1.000000
6 1 162.719710 200.719304 162.719710 200.719304 0.000000 0.000000 1.000000 1.000000 1.000000
7 1 107.986601 26.570664 107.986601 26.570664 0.000000 0.000000 1.000000 1.000000 1.000000
8 1 216.017802 56.252924 216.017802 56.252924 -0.000000 -0.000000 1.000000 1.000000 1.000000
9 1 96.193372 50.229004 96.193372 50.229004 0.000000 -0.000000 1.000000 1.000000 1.000000
10 1 52.399171 182.730394 52.399171 182.730394 0.000000 0.000000 1.000000 1.000000 1.000000
11 1 12.974633 140.246955 12.974633 140.246955 0.000000 -0.000000 1.000000 1.000000 1.000000
12 1 214.713448 94.322841 214.713448 94.322841 0.000000 -0.000000 1.000000 1.000000 1.000000
13 1 24.972371 240.906148 24.972371 240.906148 -0.000000 0.000000 1.000000 1.000000 1.000000
14 1 136.967281 140.564057 136.967281 140.564057 0.000000 -0.000000 1.000000 1.000000 1.000000
15 1 207.789636 175.719707 207.789636 175.719707 -0.000000 0.000000 1.000000 1.000000 1.000000
16 1 149.359123 177.608523 149.359123 177.608523 0.000000 0.000000 1.000000 1.000000 1.000000
17 1 53.541391 94.567798 53.541391 94.567798 0.000000 0.000000 1.000000 1.000000 1.000000
18 1 138.999054 122.090819 138.999054 122.090819 -0.000000 0.000000 1.000000 1.000000 1.000000
19 1 200.582032 61.293966 200.582032 61.293966 0.000000 -0.000000 1.000000 1.000000 1.000000
20 1 148.870934 161.059482 148.870934 161.059482 0.000000 -0.000000 1.000000 1.000000 1.000000
21 1 3.293330 210.712878 3.293330 210.712878 0.000000 -0.000000 1.000000 1.000000 1.000000
22 1 129.057741 73.378673 129.057741 73.378673 -0.000000 -0.000000 1.000000 1.000000 1.000000
23 1 73.923924 83.838673 73.923924 83.838673 0.000000 0.000000 1.000000 1.000000 1.000000
24 1 63.996799 204.563841 63.996799 204.563841 0.000000 0.000000 1.000000 1.000000 1.000000
25 1 118.494144 119.286384 118.494144 119.286384 -0.000000 -0.000000 1.000000 1.000000 1.000000
26 1 113.920856 131.274937 113.920856 131.274937 -0.000000 0.000000 1.000000 1.000000 1.000000
27 1 160.479222 114.824977 160.479222 114.824977 -0.000000 -0.000000 1.000000 1.000000 1.000000
28 1 12.133717 237.285040 254.150391 -4.731634 -0.000000 -0.000000 1.000000 1.000000 1.000000
29 1 38.537710 137.493806 38.537710 137.493806 0.000000 -0.000000 1.000000 1.000000 1.000000
30 1 94.583290 22.881404 94.583290 22.881404 0.000000 0.000000 1.000000 1.000000 1.000000
31 1 176.216410 62.430532 176.216410 62.430532 0.000000 0.000000 1.000000 1.000000 1.000000
32 1 105.076558 13.771140 105.076558 13.771140 -0.000000 -0.000000 1.000000 1.000000 1.000000
33 1 142.591829 26.530246 142.591829 26.530246 0.000000 -0.000000 1.000000 1.000000 1.000000
34 1 158.796621 130.343369 158.796621 130.343369 -0.000000 -0.000000 1.000000 1.000000 1.000000
35 1 48.280485 37.118470 48.280485 37.118470 -0.000000 -0.000000 1.000000 1.000000 1.000000
36 1 66.581659 152.756779 66.581659 152.756779 -0.000000 0.000000 1.000000 1.000000 1.000000
37 1 172.191975 21.136085 172.191975 21.136085 0.000000 -0.000000 1.000000 1.000000 1.000000
38 1 160.143446 180.991251 160.143446 180.991251 -0.000000 0.000000 1.000000 1.000000 1.000000
39 1 48.611385 200.537611 48.611385 200.537611 -0.000000 -0.000000 1.000000 1.000000 1.000000
40 1 167.732415 151.535740 167.732415 151.535740 0.000000 0.000000 1.000000 1.000000 1.000000
41 1 203.849401 80.807852 203.849401 80.807852 0.000000 0.000000 1.000000 1.000000 1.000000
42 1 9.977159 103.501613 9.977159 103.501613 0.000000 -0.000000 1.000000 1.000000 1.000000
43 1 237.551584 110.027948 237.551584 110.027948 -0.000000 -0.000000 1.000000 1.000000 1.000000
44 1 21.485942 139.777234 21.485942 139.777234 -0.000000 0.000000 1.000000 1.000000 1.000000
45 1 79.616221 24.794720 79.616221 24.794720 0.000000 0.000000 1.000000 1.000000 1.000000
46 1 152.884856 100.388550 152.884856 100.388550 -0.000000 -0.000000 1.000000 1.000000 1.000000
47 1 126.283181 170.161255 126.283181 170.161255 -0.000000 0.000000 1.000000 1.000000 1.000000
48 1 56.481809 145.793546 56.481809 145.793546 -0.000000 -0.000000 1.000000 1.000000 1.000000
49 1 121.088977 230.415430 121.088977 230.415430 0.000000 0.000000 1.000000 1.000000 1.000000
50 1 140.844435 19.251619 140.844435 19.251619 0.000000 0.000000 1.000000 1.000000 1.000000
51 1 48.686053 181.835496 48.686053 181.835496 -0.000000 -0.000000 1.000000 1.000000 1.000000
52 1 55.455012 171.460015 55.455012 171.460015 -0.000000 0.000000 1.000000 1.000000 1.000000
53 1 0.677306 216.011350 242.693980 216.011350 -0.000000 -0.000000 1.000000 1.000000 1.000000
54 1 188.819960 33.786020 188.819960 33.786020 0.000000 -0.000000 1.000000 1.000000 1.000000
55 1 238.928176 227.640376 238.928176 227.640376 0.000000 -0.000000 1.000000 1.000000 1.000000
56 1 55.598502 186.117173 55.598502 186.117173 0.000000 -0.000000 1.000000 1.000000 1.000000
57 1 104.377946 91.894563 104.377946 91.894563 -0.000000 -0.000000 1.000000 1.000000 1.000000
58 1 110.642221 112.803706 110.642221 112.803706 0.000000 0.000000 1.000000 1.000000 1.000000
59 1 131.774127 85.962072 131.774127 85.962072 0.000000 -0.000000 1.000000 1.000000 1.000000
60 1 26.310816 28.212671 26.310816 28.212671 -0.000000 0.000000 1.000000 1.000000 1.000000
61 1 104.853657 0.094884 104.853657 0.094884 0.000000 -0.000000 1.000000 1.000000 1.000000
62 1 76.221365 115.183249 76.221365 115.183249 0.000000 0.000000 1.000000 1.000000 1.000000
63 1 213.468777 151.174638 213.468777 151.174638 -0.000000 -0.000000 1.000000 1.000000 1.000000
64 1 6.425730 132.448057 248.442404 132.448057 0.000000 0.000000 1.000000 1.000000 1.000000
65 1 232.842047 228.287670 232.842047 228.287670 0.000000 0.000000 1.000000 1.000000 1.000000
66 1 146.599789 89.258539 146.599789 89.258539 -0.000000 0.000000 1.000000 1.000000 1.000000
67 1 209.814893 79.944067 209.814893 79.944067 -0.000000 0.000000 1.000000 1.000000 1.000000
68 1 33.023616 99.174176 33.023616 99.174176 -0.000000 0.000000 1.000000 1.000000 1.000000
69 1 180.248788 102.150048 180.248788 102.150048 -0.000000 0.000000 1.000000 1.000000 1.000000
70 1 123.451322 31.968921 123.451322 31.968921 -0.000000 -0.000000 1.000000 1.000000 1.000000
71 1 99.201975 113.597371 99.201975 113.597371 0.000000 -0.000000 1.000000 1.000000 1.000000
72 1 175.433761 174.219821 175.433761 174.219821 0.000000 -0.000000 1.000000 1.000000 1.000000
73 1 80.270440 178.024564 80.270440 178.024564 0.000000 0.000000 1.000000 1.000000 1.000000
74 1 2.069989 235.593815 2.069989 -6.422859 -0.000000 -0.000000 1.000000 1.000000 1.000000
75 1 58.854733 138.024564 58.854733 138.024564 0.000000 -0.000000 1.000000 1.000000 1.000000
76 1 26.935397 63.210254 26.935397 63.210254 -0.000000 0.000000 1.000000 1.000000 1.000000
77 1 86.766115 137.023832 86.766115 137.023832 -0.000000 0.000000 1.000000 1.000000 1.000000
78 1 237.147131 131.947334 237.147131 131.947334 0.000000 0.000000 1.000000 1.000000 1.000000
79 1 175.772492 228.918271 175.772492 228.918271 -0.000000 0.000000 1.000000 1.000000 1.000000
80 1 232.021885 8.349538 232.021885 8.349538 0.000000 0.000000 1.000000 1.000000 1.000000
81 1 67.153769 92.316776 67.153769 92.316776 -0.000000 0.000000 1.000000 1.000000 1.000000
82 1 169.247666 41.572301 169.247666 41.572301 -0.000000 0.000000 1.000000 1.000000 1.000000
83 1 12.076798 36.587868 12.076798 36.587868 -0.000000 -0.000000 1.000000 1.000000 1.000000
84 1 206.269438 104.203692 206.269438 104.203692 0.000000 -0.000000 1.000000 1.000000 1.000000
85 1 98.640619 27.102328 98.640619 27.102328 -0.000000 0.000000 1.000000 1.000000 1.000000
86 1 133.997377 29.667459 133.997377 29.667459 0.000000 -0.000000 1.000000 1.000000 1.000000
87 1 147.342836 47.516334 147.342836 47.516334 0.000000 0.000000 1.000000 1.000000 1.000000
88 1 131.504890 154.583155 131.504890 154.583155 0.000000 0.000000 1.000000 1.000000 1.000000
89 1 44.598468 205.313852 44.598468 205.313852 0.000000 -0.000000 1.000000 1.000000 1.000000
90 1 225.609484 72.379033 225.609484 72.379033 -0.000000 -0.000000 1.000000 1.000000 1.000000
91 1 54.214993 127.969260 54.214993 127.969260 0.000000 -0.000000 1.000000 1.000000 1.000000
92 1 208.982825 99.952113 208.982825 99.952113 0.000000 0.000000 1.000000 1.000000 1.000000
93 1 102.778364 201.243305 102.778364 201.243305 0.000000 0.000000 1.000000 1.000000 1.000000
94 1 203.505043 66.812176 203.505043 66.812176 -0.000000 -0.000000 1.000000 1.000000 1.000000
95 1 110.546622 17.122102 110.546622 17.122102 -0.000000 0.000000 1.000000 1.000000 1.000000
96 1 29.744720 71.294577 29.744720 71.294577 0.000000 0.000000 1.000000 1.000000 1.000000
97 1 47.997668 187.277911 47.997668 187.277911 0.000000 0.000000 1.000000 1.000000 1.000000
98 1 32.473977 76.906166 32.473977 76.906166 -0.000000 0.000000 1.000000 1.000000 1.000000
99 1 224.237719 8.690949 224.237719 8.690949 0.000000 -0.000000 1.000000 1.000000 1.000000
100 1 72.340461 234.599869 72.340461 234.599869 -0.000000 0.000000 1.000000 1.000000 1.000000
101 1 2.967118 15.308303 2.967118 15.308303 0.000000 0.000000 1.000000 1.000000 1.000000
102 1 229.055276 108.457765 229.055276 108.457765 0.000000 0.000000 1.000000 1.000000 1.000000
103 1 137.024303 128.700288 137.024303 128.700288 0.000000 -0.000000 1.000000 1.000000 1.000000
104 1 213.203130 90.077454 213.203130 90.077454 0.000000 -0.000000 1.000000 1.000000 1.000000
105 1 73.950301 101.932738 73.950301 101.932738 -0.000000 -0.000000 1.000000 1.000000 1.000000
106 1 105.492438 158.681848 105.492438 158.681848 0.000000 0.000000 1.000000 1.000000 1.000000
107 1 62.174473 64.853010 62.174473 64.853010 0.000000 -0.000000 1.000000 1.000000 1.000000
108 1 186.246839 67.533040 186.246839 67.533040 -0.000000 0.000000 1.000000 1.000000 1.000000
109 1 168.921141 166.899912 168.921141 166.899912 0.000000 0.000000 1.000000 1.000000 1.000000
110 1 86.693841 36.732722 86.693841 36.732722 -0.000000 -0.000000 1.000000 1.000000 1.000000
111 1 66.578521 133.779811 66.578521 133.779811 -0.000000 0.000000 1.000000 1.000000 1.000000
112 1 144.210709 18.306906 144.210709 18.306906 -0.000000 -0.000000 1.000000 1.000000 1.000000
113 1 89.110524 82.515795 89.110524 82.515795 -0.000000 -0.000000 1.000000 1.000000 1.000000
114 1 57.574547 84.383240 57.574547 84.383240 -0.000000 0.000000 1.000000 1.000000 1.000000
115 1 18.845089 232.623185 18.845089 232.623185 -0.000000 0.000000 1.000000 1.000000 1.000000
116 1 132.847454 64.658739 132.847454 64.658739 -0.000000 -0.000000 1.000000 1.000000 1.000000
117 1 121.547246 211.929405 121.547246 211.929405 -0.000000 0.000000 1.000000 1.000000 1.000000
118 1 195.675277 31.071527 195.675277 31.071527 0.000000 -0.000000 1.000000 1.000000 1.000000
119 1 162.815003 19.737799 162.815003 19.737799 -0.000000 -0.000000 1.000000 1.000000 1.000000
120 1 57.697255 53.888074 57.697255 53.888074 -0.000000 -0.000000 1.000000 1.000000 1.000000
121 1 203.423300 101.696353 203.423300 101.696353 -0.000000 0.000000 1.000000 1.000000 1.000000
122 1 215.967575 157.823289 215.967575 157.823289 0.000000 -0.000000 1.000000 1.000000 1.000000
123 1 163.054151 32.879874 163.054151 32.879874 0.000000 0.000000 1.000000 1.000000 1.000000
124 1 69.076407 135.832006 69.076407 135.832006 -0.000000 -0.000000 1.000000 1.000000 1.000000
125 1 4.153472 110.762856 4.153472 110.762856 -0.000000 0.000000 1.000000 1.000000 1.000000
126 1 229.064442 191.601417 229.064442 191.601417 0.000000 0.000000 1.000000 1.000000 1.000000
127 1 85.064421 29.187829 85.064421 29.187829 -0.000000 0.000000 1.000000 1.000000 1.000000
128 1 158.404915 23.166427 158.404915 23.166427 0.000000 -0.000000 1.000000 1.000000 1.000000
129 1 34.099859 102.281985 34.099859 102.281985 -0.000000 -0.000000 1.000000 1.000000 1.000000
130 1 162.243537 184.892241 162.243537 184.892241 -0.000000 0.000000 1.000000 1.000000 1.000000
131 1 120.824916 178.998946 120.824916 178.998946 0.000000 -0.000000 1.000000 1.000000 1.000000
132 1 25.083122 2.252745 25.083122 2.252745 0.000000 -0.000000 1.000000 1.000000 1.000000
133 1 218.686041 213.399719 218.686041 213.399719 -0.000000 0.000000 1.000000 1.000000 1.000000
134 1 220.798891 194.260986 220.798891 194.260986 -0.000000 0.000000 1.000000 1.000000 1.000000
135 1 156.969243 35.980647 156.969243 35.980647 0.000000 -0.000000 1.000000 1.000000 1.000000
136 1 74.883809 227.550372 74.883809 227.550372 -0.000000 -0.000000 1.000000 1.000000 1.000000
137 1 127.613068 64.232624 127.613068 64.232624 0.000000 -0.000000 1.000000 1.000000 1.000000
138 1 106.119900 135.091485 106.119900 135.091485 0.000000 0.000000 1.000000 1.000000 1.000000
139 1 222.776613 118.189387 222.776613 118.189387 0.000000 0.000000 1.000000 1.000000 1.000000
140 1 128.215764 153.143507 128.215764 153.143507 0.000000 0.000000 1.000000 1.000000 1.000000
141 1 223.508047 208.886323 223.508047 208.886323 -0.000000 -0.000000 1.000000 1.000000 1.000000
142 1 211.790015 114.806143 211.790015 114.806143 0.000000 -0.000000 1.000000 1.000000 1.000000
143 1 144.073705 200.275291 144.073705 200.275291 -0.000000 0.000000 1.000000 1.000000 1.000000
144 1 116.490484 6.070526 116.490484 6.070526 0.000000 0.000000 1.000000 1.000000 1.000000
145 1 32.805489 149.463037 32.805489 149.463037 0.000000 -0.000000 1.000000 1.000000 1.000000
146 1 43.575751 212.963402 43.575751 212.963402 -0.000000 -0.000000 1.000000 1.000000 1.000000
147 1 173.086420 9.178393 173.086420 9.178393 0.000000 -0.000000 1.000000 1.000000 1.000000
148 1 19.007127 34.410039 19.007127 34.410039 -0.000000 0.000000 1.000000 1.000000 1.000000
149 1 168.880332 122.915857 168.880332 122.915857 0.000000 0.000000 1.000000 1.000000 1.000000
150 1 189.004839 47.121780 189.004839 47.121780 -0.000000 0.000000 1.000000 1.000000 1.000000
151 1 134.056905 10.024819 134.056905 10.024819 -0.000000 0.000000 1.000000 1.000000 1.000000
152 1 184.015469 82.410447 184.015469 82.410447 0.000000 0.000000 1.000000 1.000000 1.000000
153 1 116.051484 196.089254 116.051484 196.089254 0.000000 0.000000 1.000000 1.000000 1.000000
154 1 180.332742 234.294464 180.332742 234.294464 -0.000000 -0.000000 1.000000 1.000000 1.000000
155 1 194.544922 99.685271 194.544922 99.685271 -0.000000 0.000000 1.000000 1.000000 1.000000
156 1 127.744186 49.005430 127.744186 49.005430 -0.000000 -0.000000 1.000000 1.000000 1.000000
157 1 203.143346 129.925996 203.143346 129.925996 0.000000 0.000000 1.000000 1.000000 1.000000
158 1 119.306345 212.765079 119.306345 212.765079 0.000000 -0.000000 1.000000 1.000000 1.000000
159 1 238.622036 232.316344 238.622036 232.316344 -0.000000 0.000000 1.000000 1.000000 1.000000
160 1 75.654568 198.674069 75.654568 198.674069 0.000000 -0.000000 1.000000 1.000000 1.000000
161 1 58.754143 140.087765 58.754143 140.087765 0.000000 0.000000 1.000000 1.000000 1.000000
162 1 206.832584 232.938075 206.832584 -9.078599 -0.000000 0.000000 1.000000 1.000000 1.000000
163 1 155.638965 105.339357 155.638965 105.339357 0.000000 0.000000 1.000000 1.000000 1.000000
164 1 51.279937 138.053746 51.279937 138.053746 -0.000000 0.000000 1.000000 1.000000 1.000000
165 1 85.599418 86.472187 85.599418 86.472187 0.000000 0.000000 1.000000 1.000000 1.000000
166 1 105.137950 183.351804 105.137950 183.351804 -0.000000 -0.000000 1.000000 1.000000 1.000000
167 1 38.585882 139.982548 38.585882 139.982548 0.000000 -0.000000 1.000000 1.000000 1.000000
168 1 33.175127 32.732038 33.175127 32.732038 -0.000000 0.000000 1.000000 1.000000 1.000000
169 1 1.830642 155.483577 1.830642 155.483577 0.000000 0.000000 1.000000 1.000000 1.000000
170 1 100.841843 13.238648 100.841843 13.238648 -0.000000 0.000000 1.000000 1.000000 1.000000
171 1 242.010307 133.880162 242.010307 133.880162 0.000000 0.000000 1.000000 1.000000 1.000000
172 1 205.449112 191.250830 205.449112 191.250830 0.000000 0.000000 1.000000 1.000000 1.000000
173 1 127.707886 81.394951 127.707886 81.394951 -0.000000 -0.000000 1.000000 1.000000 1.000000
174 1 7.373970 16.622567 249.390644 258.639241 0.000000 0.000000 1.000000 1.000000 1.000000
175 1 15.153741 136.286421 257.170415 136.286421 -0.000000 -0.000000 1.000000 1.000000 1.000000
176 1 80.234643 34.448212 80.234643 34.448212 -0.000000 0.000000 1.000000 1.000000 1.000000
177 1 241.002686 58.650801 -1.013988 58.650801 -0.000000 0.000000 1.000000 1.000000 1.000000
178 1 86.795297 179.361658 86.795297 179.361658 -0.000000 -0.000000 1.000000 1.000000 1.000000
179 1 65.997157 63.669450 65.997157 63.669450 0.000000 -0.000000 1.000000 1.000000 1.000000
180 1 98.632229 24.708989 98.632229 24.708989 -0.000000 0.000000 1.000000 1.000000 1.000000
181 1 131.191127 236.227754 131.191127 -5.788920 0.000000 0.000000 1.000000 1.000000 1.000000
182 1 97.791622 132.422789 97.791622 132.422789 0.000000 -0.000000 1.000000 1.000000 1.000000
183 1 178.182331 46.792636 178.182331 46.792636 -0.000000 -0.000000 1.000000 1.000000 1.000000
184 1 58.281617 20.449479 58.281617 20.449479 0.000000 -0.000000 1.000000 1.000000 1.000000
185 1 103.990065 144.561368 103.990065 144.561368 -0.000000 0.000000 1.000000 1.000000 1.000000
186 1 54.313166 73.145136 54.313166 73.145136 0.000000 -0.000000 1.000000 1.000000 1.000000
187 1 1.721997 141.914301 243.738671 141.914301 0.000000 0.000000 1.000000 1.000000 1.000000
188 1 168.755597 71.642449 168.755597 71.642449 -0.000000 -0.000000 1.000000 1.000000 1.000000
189 1 61.246765 209.505261 61.246765 209.505261 0.000000 -0.000000 1.000000 1.000000 1.000000
190 1 97.285517 220.830850 97.285517 220.830850 -0.000000 -0.000000 1.000000 1.000000 1.000000
191 1 108.827507 208.552601 108.827507 208.552601 0.000000 0.000000 1.000000 1.000000 1.000000
192 1 64.983567 228.265082 64.983567 228.265082 -0.000000 0.000000 1.000000 1.000000 1.000000
193 1 21.290693 148.951077 21.290693 148.951077 0.000000 -0.000000 1.000000 1.000000 1.000000
194 1 100.447240 38.060859 100.447240 38.060859 0.000000 -0.000000 1.000000 1.000000 1.000000
195 1 43.338171 210.354477 43.338171 210.354477 -0.000000 0.000000 1.000000 1.000000 1.000000
196 1 40.838024 136.000252 40.838024 136.000252 0.000000 0.000000 1.000000 1.000000 1.000000
197 1 163.511507 161.316150 163.511507 161.316150 0.000000 -0.000000 1.000000 1.000000 1.000000
198 1 70.989272 81.468261 70.989272 81.468261 0.000000 0.000000 1.000000 1.000000 1.000000
199 1 89.358617 73.403719 89.358617 73.403719 -0.000000 -0.000000 1.000000 1.000000 1.000000
200 1 208.287017 227.981900 208.287017 227.981900 -0.000000 -0.000000 1.000000 1.000000 1.000000
201 1 12.763075 176.748559 12.763075 176.748559 0.000000 0.000000 1.000000 1.000000 1.000000
202 1 189.380267 82.859497 189.380267 82.859497 -0.000000 -0.000000 1.000000 1.000000 1.000000
203 1 74.435353 126.885127 74.435353 126.885127 -0.000000 -0.000000 1.000000 1.000000 1.000000
204 1 19.697204 108.870847 261.713878 108.870847 0.000000 0.000000 1.000000 1.000000 1.000000
205 1 233.737512 233.870119 -8.279162 -8.146555 0.000000 0.000000 1.000000 1.000000 1.000000
206 1 197.751767 23.965160 197.751767 23.965160 -0.000000 -0.000000 1.000000 1.000000 1.000000
207 1 79.377835 116.160893 79.377835 116.160893 0.000000 0.000000 1.000000 1.000000 1.000000
208 1 129.738593 160.920163 129.738593 160.920163 0.000000 -0.000000 1.000000 1.000000 1.000000
209 1 87.323764 27.915351 87.323764 27.915351 -0.000000 -0.000000 1.000000 1.000000 1.000000
210 1 139.845220 112.287760 139.845220 112.287760 0.000000 -0.000000 1.000000 1.000000 1.000000
211 1 107.032047 213.358947 107.032047 213.358947 0.000000 -0.000000 1.000000 1.000000 1.000000
212 1 63.497688 175.518314 63.497688 175.518314 0.000000 0.000000 1.000000 1.000000 1.000000
213 1 117.794745 217.052002 117.794745 217.052002 0.000000 0.000000 1.000000 1.000000 1.000000
214 1 32.808695 227.890257 32.808695 227.890257 0.000000 -0.000000 1.000000 1.000000 1.000000
215 1 173.080335 145.301292 173.080335 145.301292 0.000000 -0.000000 1.000000 1.000000 1.000000
216 1 219.832845 162.278520 219.832845 162.278520 0.000000 -0.000000 1.000000 1.000000 1.000000
217 1 0.294728 14.848884 0.294728 14.848884 0.000000 -0.000000 1.000000 1.000000 1.000000
218 1 237.871517 212.763402 -4.145157 212.763402 0.000000 0.000000 1.000000 1.000000 1.000000
219 1 88.310403 34.443948 88.310403 34.443948 0.000000 -0.000000 1.000000 1.000000 1.000000
220 1 235.379219 103.374144 235.379219 103.374144 -0.000000 -0.000000 1.000000 1.000000 1.000000
221 1 96.356359 144.207290 96.356359 144.207290 0.000000 0.000000 1.000000 1.000000 1.000000
222 1 200.247993 18.875875 200.247993 18.875875 -0.000000 0.000000 1.000000 1.000000 1.000000
223 1 63.411679 225.187350 63.411679 225.187350 0.000000 -0.000000 1.000000 1.000000 1.000000
224 1 6.397325 59.668212 6.397325 59.668212 -0.000000 -0.000000 1.000000 1.000000 1.000000
225 1 60.832026 40.726134 60.832026 40.726134 0.000000 -0.000000 1.000000 1.000000 1.000000
226 1 136.357224 224.807030 136.357224 224.807030 -0.000000 0.000000 1.000000 1.000000 1.000000
227 1 209.973458 202.603055 209.973458 202.603055 0.000000 0.000000 1.000000 1.000000 1.000000
228 1 214.959829 80.480140 214.959829 80.480140 0.000000 -0.000000 1.000000 1.000000 1.000000
229 1 93.144244 168.789800 93.144244 168.789800 -0.000000 -0.000000 1.000000 1.000000 1.000000
230 1 181.216070 10.024150 181.216070 10.024150 -0.000000 -0.000000 1.000000 1.000000 1.000000
231 1 89.399193 39.527364 89.399193 39.527364 -0.000000 0.000000 1.000000 1.000000 1.000000
232 1 14.283984 236.386654 14.283984 -5.630020 0.000000 -0.000000 1.000000 1.000000 1.000000
233 1 142.878087 188.397429 142.878087 188.397429 -0.000000 0.000000 1.000000 1.000000 1.000000
234 1 177.584180 85.866121 177.584180 85.866121 -0.000000 -0.000000 1.000000 1.000000 1.000000
235 1 106.736951 47.122721 106.736951 47.122721 0.000000 0.000000 1.000000 1.000000 1.000000
236 1 159.943161 108.821150 159.943161 108.821150 -0.000000 0.000000 1.000000 1.000000 1.000000
237 1 97.274485 12.981253 97.274485 12.981253 -0.000000 0.000000 1.000000 1.000000 1.000000
238 1 116.586805 87.021843 116.586805 87.021843 -0.000000 0.000000 1.000000 1.000000 1.000000
239 1 106.242363 176.811709 106.242363 176.811709 -0.000000 -0.000000 1.000000 1.000000 1.000000
240 1 224.072814 110.552800 224.072814 110.552800 0.000000 0.000000 1.000000 1.000000 1.000000
241 1 228.756557 131.242643 228.756557 131.242643 0.000000 0.000000 1.000000 1.000000 1.000000
242 1 242.008522 206.142996 -0.008152 206.142996 -0.000000 -0.000000 1.000000 1.000000 1.000000
243 1 105.927117 146.697530 105.927117 146.697530 0.000000 -0.000000 1.000000 1.000000 1.000000
244 1 86.334130 19.343809 86.334130 19.343809 0.000000 0.000000 1.000000 1.000000 1.000000
245 1 150.639558 186.627528 150.639558 186.627528 -0.000000 -0.000000 1.000000 1.000000 1.000000
246 1 3.804820 198.098548 3.804820 198.098548 -0.000000 0.000000 1.000000 1.000000 1.000000
247 1 114.434129 55.873143 114.434129 55.873143 0.000000 0.000000 1.000000 1.000000 1.000000
248 1 59.455739 99.862007 59.455739 99.862007 0.000000 -0.000000 1.000000 1.000000 1.000000
249 1 40.783031 32.718311 40.783031 32.718311 -0.000000 -0.000000 1.000000 1.000000 1.000000
250 1 235.510255 163.181353 -6.506419 163.181353 -0.000000 -0.000000 1.000000 1.000000 1.000000
251 1 86.616805 82.530337 86.616805 82.530337 -0.000000 -0.000000 1.000000 1.000000 1.000000
252 1 90.031237 195.046970 90.031237 195.046970 0.000000 0.000000 1.000000 1.000000 1.000000
253 1 71.102158 59.740103 71.102158 59.740103 -0.000000 -0.000000 1.000000 1.000000 1.000000
254 1 169.933337 73.465415 169.933337 73.465415 0.000000 -0.000000 1.000000 1.000000 1.000000
255 1 76.008030 146.494987 76.008030 146.494987 0.000000 0.000000 1.000000 1.000000 1.000000
256 1 8.628547 71.608582 8.628547 71.608582 -0.000000 -0.000000 1.000000 1.000000 1.000000
257 1 132.732091 21.020346 132.732091 21.020346 0.000000 0.000000 1.000000 1.000000 1.000000
258 1 136.779483 35.779804 136.779483 35.779804 0.000000 0.000000 1.000000 1.000000 1.000000
259 1 105.612330 98.403311 105.612330 98.403311 0.000000 0.000000 1.000000 1.000000 1.000000
260 1 17.117357 42.202645 17.117357 42.202645 -0.000000 -0.000000 1.000000 1.000000 1.000000
261 1 182.864696 43.701373 182.864696 43.701373 0.000000 0.000000 1.000000 1.000000 1.000000
262 1 142.997733 205.184732 142.997733 205.184732 0.000000 0.000000 1.000000 1.000000 1.000000
263 1 34.211747 6.987869 34.211747 249.004543 -0.000000 -0.000000 1.000000 1.000000 1.000000
264 1 141.543847 236.238013 141.543847 236.238013 0.000000 0.000000 1.000000 1.000000 1.000000
265 1 188.140807 242.001654 188.140807 -0.015020 0.000000 0.000000 1.000000 1.000000 1.000000
266 1 216.210346 18.051302 216.210346 18.051302 0.000000 0.000000 1.000000 1.000000 1.000000
267 1 168.250234 117.466585 168.250234 117.466585 -0.000000 -0.000000 1.000000 1.000000 1.000000
268 1 198.611331 47.742262 198.611331 47.742262 0.000000 0.000000 1.000000 1.000000 1.000000
269 1 181.060698 114.779513 181.060698 114.779513 -0.000000 -0.000000 1.000000 1.000000 1.000000
270 1 21.891811 102.254574 21.891811 102.254574 0.000000 -0.000000 1.000000 1.000000 1.000000
271 1 40.396987 229.296604 40.396987 229.296604 -0.000000 -0.000000 1.000000 1.000000 1.000000
272 1 197.945282 170.746323 197.945282 170.746323 -0.000000 -0.000000 1.000000 1.000000 1.000000
273 1 66.443737 210.772734 66.443737 210.772734 -0.000000 0.000000 1.000000 1.000000 1.000000
274 1 69.606408 19.360373 69.606408 19.360373 0.000000 -0.000000 1.000000 1.000000 1.000000
275 1 224.966348 219.986758 224.966348 219.986758 -0.000000 0.000000 1.000000 1.000000 1.000000
276 1 62.900797 25.824860 62.900797 25.824860 -0.000000 0.000000 1.000000 1.000000 1.000000
277 1 42.883837 160.455596 42.883837 160.455596 0.000000 0.000000 1.000000 1.000000 1.000000
278 1 113.837179 173.931934 113.837179 173.931934 -0.000000 -0.000000 1.000000 1.000000 1.000000
279 1 201.301245 151.794389 201.301245 151.794389 -0.000000 -0.000000 1.000000 1.000000 1.000000
280 1 61.921152 50.151479 61.921152 50.151479 -0.000000 0.000000 1.000000 1.000000 1.000000
281 1 179.068411 192.702108 179.068411 192.702108 0.000000 0.000000 1.000000 1.000000 1.000000
282 1 71.326547 84.464196 71.326547 84.464196 -0.000000 -0.000000 1.000000 1.000000 1.000000
283 1 182.415529 19.469777 182.415529 19.469777 -0.000000 -0.000000 1.000000 1.000000 1.000000
284 1 118.998546 66.585135 118.998546 66.585135 0.000000 0.000000 1.000000 1.000000 1.000000
285 1 225.702831 94.225544 225.702831 94.225544 -0.000000 -0.000000 1.000000 1.000000 1.000000
286 1 85.620491 196.735905 85.620491 196.735905 0.000000 0.000000 1.000000 1.000000 1.000000
287 1 10.314029 158.750008 10.314029 158.750008 0.000000 0.000000 1.000000 1.000000 1.000000
288 1 204.266798 78.194718 204.266798 78.194718 -0.000000 0.000000 1.000000 1.000000 1.000000
289 1 185.353549 220.856042 185.353549 220.856042 -0.000000 0.000000 1.000000 1.000000 1.000000
290 1 223.398763 16.318192 223.398763 16.318192 0.000000 0.000000 1.000000 1.000000 1.000000
291 1 116.459011 76.099980 116.459011 76.099980 0.000000 0.000000 1.000000 1.000000 1.000000
292 1 227.835418 123.623590 227.835418 123.623590 0.000000 -0.000000 1.000000 1.000000 1.000000
293 1 26.113394 61.157896 26.113394 61.157896 -0.000000 0.000000 1.000000 1.000000 1.000000
294 1 89.304881 218.055274 89.304881 218.055274 0.000000 0.000000 1.000000 1.000000 1.000000
295 1 47.086545 202.792539 47.086545 202.792539 0.000000 -0.000000 1.000000 1.000000 1.000000
296 1 174.466207 61.302240 174.466207 61.302240 -0.000000 0.000000 1.000000 1.000000 1.000000
297 1 180.091298 217.900495 180.091298 217.900495 0.000000 0.000000 1.000000 1.000000 1.000000
298 1 193.900118 119.802006 193.900118 119.802006 -0.000000 -0.000000 1.000000 1.000000 1.000000
299 1 109.527061 241.036196 109.527061 -0.980478 0.000000 -0.000000 1.000000 1.000000 1.000000
300 1 210.194261 8.009474 210.194261 8.009474 -0.000000 0.000000 1.000000 1.000000 1.000000
301 1 100.171485 145.506394 100.171485 145.506394 -0.000000 0.000000 1.000000 1.000000 1.000000
302 1 58.077917 166.677495 58.077917 166.677495 0.000000 -0.000000 1.000000 1.000000 1.000000
303 1 145.726665 132.821535 145.726665 132.821535 -0.000000 -0.000000 1.000000 1.000000 1.000000
304 1 84.615617 69.787384 84.615617 69.787384 0.000000 -0.000000 1.000000 1.000000 1.000000
305 1 229.440938 202.388365 229.440938 202.388365 0.000000 0.000000 1.000000 1.000000 1.000000
306 1 57.962464 238.735714 57.962464 238.735714 0.000000 0.000000 1.000000 1.000000 1.000000
307 1 114.493757 43.438016 114.493757 43.438016 0.000000 -0.000000 1.000000 1.000000 1.000000
308 1 97.501725 39.188259 97.501725 39.188259 0.000000 -0.000000 1.000000 1.000000 1.000000
309 1 151.731379 194.381159 151.731379 194.381159 -0.000000 0.000000 1.000000 1.000000 1.000000
310 1 110.564247 147.401060 110.564247 147.401060 0.000000 0.000000 1.000000 1.000000 1.000000
311 1 22.819229 147.414424 22.819229 147.414424 -0.000000 0.000000 1.000000 1.000000 1.000000
312 1 169.438582 231.285355 169.438582 231.285355 -0.000000 0.000000 1.000000 1.000000 1.000000
313 1 96.292285 188.864387 96.292285 188.864387 0.000000 0.000000 1.000000 1.000000 1.000000
314 1 70.411778 25.992307 70.411778 25.992307 0.000000 -0.000000 1.000000 1.000000 1.000000
315 1 60.202855 86.692350 60.202855 86.692350 -0.000000 -0.000000 1.000000 1.000000 1.000000
316 1 119.830334 60.728787 119.830334 60.728787 0.000000 0.000000 1.000000 1.000000 1.000000
317 1 138.787860 228.811542 138.787860 228.811542 0.000000 -0.000000 1.000000 1.000000 1.000000