ITEM: TIMESTEP
1800.000000
ITEM: NUMBER OF ATOMS
5000
ITEM: BOX BOUNDS xy xz yz
0 260.307196 0
0 260.307196 0
0 2 0
ITEM: ATOMS id type x y xu yu vx vy radius m z
0 1 259.584543 16.000406 259.584543 276.307602 0.000000 -0.000000 1.000000 1.000000 1.000000
1 1 205.965046 161.626879 205.965046 161.626879 -0.000000 0.000000 1.000000 1.000000 1.000000
2 1 9.161531 109.315179 269.468727 109.315179 0.000000 0.000000 1.000000 1.000000 1.000000
3 1 108.437713 178.239251 108.437713 178.239251 0.000000 0.000000 1.000000 1.000000 1.000000
4 1 7.278858 211.069466 7.278858 211.069466 -0.000000 0.000000 1.000000 1.000000 1.000000
5 1 8.138674 163.247285 8.138674 163.247285 -0.000000 0.000000 1.000000 1.000000 1.000000
6 1 175.033378 210.021327 175.033378 210.021327 -0.000000 -0.000000 1.000000 1.000000 1.000000
7 1 248.356053 104.480337 -11.951143 104.480337 0.000000 -0.000000 1.000000 1.000000 1.000000
8 1 90.570673 237.663458 90.570673 237.663458 -0.000000 0.000000 1.000000 1.000000 1.000000
9 1 118.480858 236.799920 118.480858 236.799920 0.000000 0.000000 1.000000 1.000000 1.000000
10 1 176.001214 102.603863 176.001214 102.603863 0.000000 -0.000000 1.000000 1.000000 1.000000
11 1 182.820977 44.856764 182.820977 44.856764 -0.000000 0.000000 1.000000 1.000000 1.000000
12 1 234.779888 89.983255 234.779888 89.983255 0.000000 0.000000 1.000000 1.000000 1.000000
13 1 254.890991 177.563573 -5.416205 177.563573 -0.000000 -0.000000 1.000000 1.000000 1.000000
14 1 237.651305 26.854559 237.651305 26.854559 -0.000000 -0.000000 1.000000 1.000000 1.000000
15 1 58.293832 98.857496 58.293832 98.857496 0.000000 0.000000 1.000000 1.000000 1.000000
16 1 68.544111 74.261977 68.544111 74.261977 -0.000000 0.000000 1.000000 1.000000 1.000000
17 1 223.906867 251.014462 223.906867 251.014462 0.000000 0.000000 1.000000 1.000000 1.000000
18 1 16.320951 18.104746 16.320951 18.104746 0.000000 -0.000000 1.000000 1.000000 1.000000
19 1 226.826214 155.182342 226.826214 155.182342 0.000000 -0.000000 1.000000 1.000000 1.000000
20 1 103.998257 118.363063 103.998257 118.363063 0.000000 0.000000 1.000000 1.000000 1.000000
21 1 82.517315 23.365977 82.517315 23.365977 -0.000000 0.000000 1.000000 1.000000 1.000000
22 1 169.118910 203.847689 169.118910 203.847689 0.000000 -0.000000 1.000000 1.000000 1.000000
23 1 254.091217 137.841062 254.091217 137.841062 -0.000000 0.000000 1.000000 1.000000 1.000000
24 1 231.576057 111.475320 231.576057 111.475320 -0.000000 -0.000000 1.000000 1.000000 1.000000
25 1 2.107586 223.226576 2.107586 223.226576 0.000000 -0.000000 1.000000 1.000000 1.000000
26 1 162.771327 188.649410 162.771327 188.649410 -0.000000 -0.000000 1.000000 1.000000 1.000000
27 1 113.267393 243.123387 113.267393 243.123387 0.000000 0.000000 1.000000 1.000000 1.000000
28 1 138.577726 61.125215 138.577726 61.125215 0.000000 -0.000000 1.000000 1.000000 1.000000
29 1 245.297240 25.875990 245.297240 25.875990 -0.000000 -0.000000 1.000000 1.000000 1.000000
30 1 25.678758 66.981770 25.678758 66.981770 -0.000000 0.000000 1.000000 1.000000 1.000000
31 1 179.754528 51.628626 179.754528 51.628626 0.000000 0.000000 1.000000 1.000000 1.000000
32 1 223.051808 97.296848 223.051808 97.296848 0.000000 0.000000 1.000000 1.000000 1.000000
33 1 138.632231 116.102347 138.632231 116.102347 -0.000000 -0.000000 1.000000 1.000000 1.000000
34 1 87.395451 63.709961 87.395451 63.709961 -0.000000 0.000000 1.000000 1.000000 1.000000
35 1 255.371041 89.985400 255.371041 89.985400 -0.000000 -0.000000 1.000000 1.000000 1.000000
36 1 154.117537 9.711592 154.117537 9.711592 -0.000000 -0.000000 1.000000 1.000000 1.000000
37 1 198.331982 158.533049 198.331982 158.533049 -0.000000 0.000000 1.000000 1.000000 1.000000
38 1 245.641542 39.518133 245.641542 39.518133 0.000001 -0.000000 1.000000 1.000000 1.000000
39 1 205.123054 138.944756 205.123054 138.944756 0.000000 -0.000000 1.000000 1.000000 1.000000
40 1 185.627337 126.776469 185.627337 126.776469 0.000000 -0.000000 1.000000 1.000000 1.000000
41 1 242.637481 182.828192 242.637481 182.828192 -0.000000 -0.000000 1.000000 1.000000 1.000000
42 1 113.213513 248.356521 113.213513 248.356521 -0.000000 -0.000000 1.000000 1.000000 1.000000
43 1 228.548408 226.301707 228.548408 226.301707 -0.000000 0.000000 1.000000 1.000000 1.000000
44 1 168.839784 244.489739 168.839784 244.489739 -0.000000 -0.000000 1.000000 1.000000 1.000000
45 1 43.955137 251.220565 43.955137 251.220565 -0.000000 -0.000000 1.000000 1.000000 1.000000
46 1 158.543099 246.194103 158.543099 246.194103 -0.000000 -0.000000 1.000000 1.000000 1.000000
47 1 208.201864 197.652941 208.201864 197.652941 0.000000 -0.000000 1.000000 1.000000 1.000000
48 1 205.042430 204.182340 205.042430 204.182340 0.000000 -0.000000 1.000000 1.000000 1.000000
49 1 253.829279 27.004514 253.829279 27.004514 0.000000 0.000000 1.000000 1.000000 1.000000
50 1 179.707641 258.598761 179.707641 -1.708435 0.000000 -0.000000 1.000000 1.000000 1.000000
51 1 207.762265 219.323168 207.762265 219.323168 0.000000 0.000000 1.000000 1.000000 1.000000
52 1 57.466109 54.252643 57.466109 54.252643 -0.000000 0.000000 1.000000 1.000000 1.000000
53 1 87.409775 190.636527 87.409775 190.636527 -0.000000 -0.000000 1.000000 1.000000 1.000000
54 1 20.692579 196.093162 20.692579 196.093162 -0.000000 -0.000000 1.000000 1.000000 1.000000
55 1 39.258299 181.074707 39.258299 181.074707 0.000000 0.000000 1.000000 1.000000 1.000000
56 1 123.123268 27.676074 123.123268 27.676074 -0.000000 0.000000 1.000000 1.000000 1.000000
57 1 89.568982 143.838280 89.568982 143.838280 -0.000000 -0.000000 1.000000 1.000000 1.000000
58 1 84.195718 49.560314 84.195718 49.560314 0.000000 0.000000 1.000000 1.000000 1.000000
59 1 56.894339 14.040538 56.894339 274.347734 0.000000 -0.000000 1.000000 1.000000 1.000000
60 1 189.147615 131.319463 189.147615 131.319463 -0.000000 -0.000000 1.000000 1.000000 1.000000
61 1 205.308608 219.905942 205.308608 219.905942 -0.000000 0.000000 1.000000 1.000000 1.000000
62 1 218.336681 99.188376 218.336681 99.188376 -0.000000 -0.000000 1.000000 1.000000 1.000000
63 1 148.402707 124.383577 148.402707 124.383577 -0.000000 -0.000000 1.000000 1.000000 1.000000
64 1 244.749436 217.353210 244.749436 217.353210 0.000000 0.000000 1.000000 1.000000 1.000000
65 1 66.646020 87.634763 66.646020 87.634763 -0.000000 -0.000000 1.000000 1.000000 1.000000
66 1 57.788095 257.882719 57.788095 257.882719 0.000000 -0.000000 1.000000 1.000000 1.000000
67 1 134.380264 126.743000 134.380264 126.743000 -0.000000 0.000000 1.000000 1.000000 1.000000
68 1 148.510110 4.046475 148.510110 264.353671 0.000000 0.000000 1.000000 1.000000 1.000000
69 1 151.914530 116.126117 151.914530 116.126117 -0.000000 0.000000 1.000000 1.000000 1.000000
70 1 92.163153 137.275102 92.163153 137.275102 0.000000 0.000000 1.000000 1.000000 1.000000
71 1 110.972635 3.807357 110.972635 264.114553 0.000000 0.000000 1.000000 1.000000 1.000000
72 1 141.008423 228.744979 141.008423 228.744979 -0.000000 0.000000 1.000000 1.000000 1.000000
73 1 68.972433 76.324331 68.972433 76.324331 0.000000 -0.000000 1.000000 1.000000 1.000000
74 1 77.790583 54.860139 77.790583 54.860139 0.000000 0.000000 1.000000 1.000000 1.000000
75 1 87.175601 244.156513 87.175601 244.156513 -0.000000 0.000000 1.000000 1.000000 1.000000
76 1 197.486145 89.814754 197.486145 89.814754 0.000000 0.000000 1.000000 1.000000 1.000000
77 1 47.167549 45.308581 47.167549 45.308581 -0.000000 -0.000000 1.000000 1.000000 1.000000
78 1 149.403759 6.482595 149.403759 6.482595 0.000000 -0.000000 1.000000 1.000000 1.000000
79 1 72.274648 222.153047 72.274648 222.153047 -0.000000 0.000000 1.000000 1.000000 1.000000
80 1 250.366986 188.418754 250.366986 188.418754 -0.000000 0.000000 1.000000 1.000000 1.000000
81 1 60.959632 259.737828 60.959632 259.737828 0.000000 0.000000 1.000000 1.000000 1.000000
82 1 250.296317 96.734804 250.296317 96.734804 0.000000 -0.000000 1.000000 1.000000 1.000000
83 1 140.655475 188.075131 140.655475 188.075131 -0.000000 -0.000000 1.000000 1.000000 1.000000
84 1 175.493412 189.377063 175.493412 189.377063 -0.000000 0.000000 1.000000 1.000000 1.000000
85 1 254.734657 112.000121 254.734657 112.000121 -0.000000 -0.000000 1.000000 1.000000 1.000000
86 1 46.924103 91.315115 46.924103 91.315115 0.000000 0.000000 1.000000 1.000000 1.000000
87 1 129.018107 197.147693 129.018107 197.147693 -0.000001 -0.000000 1.000000 1.000000 1.000000
88 1 109.153955 4.712982 109.153955 4.712982 -0.000000 0.000000 1.000000 1.000000 1.000000
89 1 160.356439 208.190098 160.356439 208.190098 -0.000000 -0.000000 1.000000 1.000000 1.000000
90 1 222.005615 118.113529 222.005615 118.113529 -0.000000 0.000000 1.000000 1.000000 1.000000
91 1 127.777316 153.410356 127.777316 153.410356 0.000000 -0.000000 1.000000 1.000000 1.000000
92 1 9.274423 178.653939 9.274423 178.653939 -0.000000 -0.000000 1.000000 1.000000 1.000000
93 1 154.761452 108.638909 154.761452 108.638909 0.000000 -0.000000 1.000000 1.000000 1.000000
94 1 236.710961 161.098725 236.710961 161.098725 -0.000000 -0.000000 1.000000 1.000000 1.000000
95 1 21.313704 258.741290 21.313704 258.741290 0.000000 -0.000000 1.000000 1.000000 1.000000
96 1 6.050692 158.325826 6.050692 158.325826 -0.000000 0.000000 1.000000 1.000000 1.000000
97 1 75.074053 5.472037 75.074053 265.779233 -0.000000 0.000000 1.000000 1.000000 1.000000
98 1 78.794347 184.933853 78.794347 184.933853 -0.000000 0.000000 1.000000 1.000000 1.000000
99 1 60.979846 73.849190 60.979846 73.849190 0.000000 0.000000 1.000000 1.000000 1.000000
100 1 225.515558 252.445219 225.515558 252.445219 -0.000000 0.000000 1.000000 1.000000 1.000000
101 1 45.577593 4.830957 45.577593 4.830957 0.000000 0.000000 1.000000 1.000000 1.000000
102 1 153.134916 74.030880 153.134916 74.030880 -0.000000 -0.000000 1.000000 1.000000 1.000000
103 1 94.141855 204.080301 94.141855 204.080301 -0.000000 -0.000000 1.000000 1.000000 1.000000
104 1 6.578337 165.824749 6.578337 165.824749 -0.000000 0.000000 1.000000 1.000000 1.000000
105 1 207.716664 26.624466 207.716664 26.624466 0.000000 0.000000 1.000000 1.000000 1.000000
106 1 189.109255 148.002890 189.109255 148.002890 0.000000 -0.000000 1.000000 1.000000 1.000000
107 1 146.288782 38.766208 146.288782 38.766208 0.000000 0.000000 1.000000 1.000000 1.000000
108 1 200.571158 204.040834 200.571158 204.040834 -0.000000 0.000000 1.000000 1.000000 1.000000
109 1 13.883547 189.598320 13.883547 189.598320 -0.000000 -0.000000 1.000000 1.000000 1.000000
110 1 171.870447 180.885449 171.870447 180.885449 -0.000000 0.000000 1.000000 1.000000 1.000000
111 1 191.330354 180.793712 191.330354 180.793712 -0.000000 0.000000 1.000000 1.000000 1.000000
112 1 105.577010 20.124741 105.577010 280.431937 0.000000 0.000000 1.000000 1.000000 1.000000
113 1 102.431211 155.904373 102.431211 155.904373 0.000000 0.000000 1.000000 1.000000 1.000000
114 1 142.542848 32.888659 142.542848 32.888659 -0.000000 0.000000 1.000000 1.000000 1.000000
115 1 97.308716 82.895489 97.308716 82.895489 -0.000000 -0.000000 1.000000 1.000000 1.000000
116 1 149.105409 180.204240 149.105409 180.204240 -0.000000 0.000000 1.000000 1.000000 1.000000
117 1 104.274413 148.785418 104.274413 148.785418 -0.000000 0.000000 1.000000 1.000000 1.000000
118 1 118.744126 35.138797 118.744126 35.138797 -0.000000 -0.000000 1.000000 1.000000 1.000000
119 1 25.731896 248.641236 25.731896 248.641236 -0.000000 -0.000000 1.000000 1.000000 1.000000
120 1 49.118586 133.262304 49.118586 133.262304 -0.000000 -0.000000 1.000000 1.000000 1.000000
121 1 51.754760 180.003355 51.754760 180.003355 0.000000 0.000000 1.000000 1.000000 1.000000
122 1 98.496616 72.652063 98.496616 72.652063 0.000000 -0.000000 1.000000 1.000000 1.000000
123 1 58.047966 93.669143 58.047966 93.669143 -0.000000 0.000000 1.000000 1.000000 1.000000
124 1 126.928859 140.047560 126.928859 140.047560 -0.000000 0.000000 1.000000 1.000000 1.000000
125 1 224.336528 10.081574 224.336528 270.388770 0.000000 0.000000 1.000000 1.000000 1.000000
126 1 15.386535 109.839469 275.693731 109.839469 -0.000000 0.000000 1.000000 1.000000 1.000000
127 1 94.794904 190.951125 94.794904 190.951125 0.000000 -0.000000 1.000000 1.000000 1.000000
128 1 45.525448 83.572522 45.525448 83.572522 0.000000 -0.000000 1.000000 1.000000 1.000000
129 1 55.673784 134.123666 55.673784 134.123666 -0.000000 -0.000000 1.000000 1.000000 1.000000
130 1 136.260443 60.190440 136.260443 60.190440 0.000000 -0.000000 1.000000 1.000000 1.000000
131 1 109.254240 227.899510 109.254240 227.899510 -0.000000 -0.000000 1.000000 1.000000 1.000000
132 1 205.479397 26.773675 205.479397 26.773675 -0.000000 0.000000 1.000000 1.000000 1.000000
133 1 174.132602 144.103652 174.132602 144.103652 0.000000 -0.000000 1.000000 1.000000 1.000000
134 1 205.974321 247.783754 205.974321 247.783754 0.000000 0.000000 1.000000 1.000000 1.000000
135 1 78.074966 19.633993 78.074966 19.633993 -0.000000 -0.000000 1.000000 1.000000 1.000000
136 1 185.520718 58.679285 185.520718 58.679285 -0.000000 -0.000000 1.000000 1.000000 1.000000
137 1 246.535065 23.439945 246.535065 23.439945 -0.000000 -0.000000 1.000000 1.000000 1.000000
138 1 214.212575 37.745194 214.212575 37.745194 -0.000000 0.000000 1.000000 1.000000 1.000000
139 1 15.040348 227.729847 15.040348 227.729847 0.000000 0.000000 1.000000 1.000000 1.000000
140 1 173.308001 169.175860 173.308001 169.175860 0.000000 0.000000 1.000000 1.000000 1.000000
141 1 0.942820 193.675293 0.942820 193.675293 0.000000 -0.000000 1.000000 1.000000 1.000000
142 1 50.453284 65.059159 50.453284 65.059159 -0.000000 -0.000000 1.000000 1.000000 1.000000
143 1 78.288624 164.501018 78.288624 164.501018 -0.000000 0.000000 1.000000 1.000000 1.000000
144 1 167.162982 33.376747 167.162982 33.376747 0.000000 -0.000000 1.000000 1.000000 1.000000
145 1 170.323610 208.124616 170.323610 208.124616 -0.000000 0.000000 1.000000 1.000000 1.000000
146 1 178.357262 27.355765 178.357262 27.355765 0.000000 0.000000 1.000000 1.000000 1.000000
147 1 155.199731 28.474274 155.199731 28.474274 0.000000 0.000000 1.000000 1.000000 1.000000
148 1 4.471536 2.301639 4.471536 262.608835 -0.000000 -0.000000 1.000000 1.000000 1.000000
149 1 90.287554 188.677652 90.287554 188.677652 -0.000000 0.000000 1.000000 1.000000 1.000000
150 1 48.864859 156.676624 48.864859 156.676624 -0.000000 -0.000000 1.000000 1.000000 1.000000
151 1 6.219785 151.147356 266.526981 151.147356 0.000000 -0.000000 1.000000 1.000000 1.000000
152 1 53.193113 68.354554 53.193113 68.354554 0.000000 0.000000 1.000000 1.000000 1.000000
153 1 215.170824 206.340591 215.170824 206.340591 -0.000000 -0.000000 1.000000 1.000000 1.000000
154 1 65.106970 119.128572 65.106970 119.128572 -0.000000 0.000000 1.000000 1.000000 1.000000
155 1 139.419548 227.189305 139.419548 227.189305 -0.000000 -0.000000 1.000000 1.000000 1.000000
156 1 1.595603 55.445920 261.902799 55.445920 0.000000 0.000000 1.000000 1.000000 1.000000
157 1 14.280625 123.276638 14.280625 123.276638 0.000000 0.000000 1.000000 1.000000 1.000000
158 1 226.525195 69.005228 226.525195 69.005228 -0.000000 0.000000 1.000000 1.000000 1.000000
159 1 9.806433 4.333170 9.806433 4.333170 -0.000000 0.000000 1.000000 1.000000 1.000000
160 1 192.820348 201.074655 192.820348 201.074655 -0.000000 0.000000 1.000000 1.000000 1.000000
161 1 85.356869 227.907398 85.356869 227.907398 0.000000 0.000000 1.000000 1.000000 1.000000
162 1 44.713742 190.441574 44.713742 190.441574 -0.000000 -0.000000 1.000000 1.000000 1.000000
163 1 239.380031 244.280521 239.380031 244.280521 -0.000000 -0.000000 1.000000 1.000000 1.000000
164 1 76.212739 67.963589 76.212739 67.963589 0.000000 -0.000000 1.000000 1.000000 1.000000
165 1 102.948363 83.026863 102.948363 83.026863 -0.000000 -0.000000 1.000000 1.000000 1.000000
166 1 5.010239 239.465085 265.317435 239.465085 0.000000 -0.000000 1.000000 1.000000 1.000000
167 1 246.389556 158.775481 246.389556 158.775481 0.000000 -0.000000 1.000000 1.000000 1.000000
168 1 136.837816 125.791757 136.837816 125.791757 -0.000000 0.000000 1.000000 1.000000 1.000000
169 1 165.930122 259.991495 165.930122 259.991495 0.000000 0.000000 1.000000 1.000000 1.000000
170 1 61.218923 201.599087 61.218923 201.599087 0.000000 -0.000000 1.000000 1.000000 1.000000
171 1 227.262425 187.451644 227.262425 187.451644 -0.000000 0.000000 1.000000 1.000000 1.000000
172 1 164.085540 89.387837 164.085540 89.387837 0.000000 -0.000000 1.000000 1.000000 1.000000
173 1 148.428601 197.381904 148.428601 197.381904 -0.000000 -0.000000 1.000000 1.000000 1.000000
174 1 50.208876 250.197039 50.208876 250.197039 0.000000 0.000000 1.000000 1.000000 1.000000
175 1 94.883801 9.180126 94.883801 9.180126 0.000000 -0.000000 1.000000 1.000000 1.000000
176 1 99.355630 172.042713 99.355630 172.042713 0.000000 -0.000000 1.000000 1.000000 1.000000
177 1 59.154829 19.966418 59.154829 19.966418 0.000000 0.000000 1.000000 1.000000 1.000000
178 1 214.918267 49.299773 214.918267 49.299773 -0.000000 0.000000 1.000000 1.000000 1.000000
179 1 153.369702 114.239598 153.369702 114.239598 0.000000 0.000000 1.000000 1.000000 1.000000
180 1 141.971862 3.949377 141.971862 264.256573 0.000000 0.000000 1.000000 1.000000 1.000000
181 1 58.879766 178.697611 58.879766 178.697611 -0.000000 -0.000000 1.000000 1.000000 1.000000
182 1 122.435458 152.505599 122.435458 152.505599 -0.000000 0.000000 1.000000 1.000000 1.000000
183 1 10.750208 216.928757 10.750208 216.928757 -0.000000 -0.000000 1.000000 1.000000 1.000000
184 1 97.042659 108.676010 97.042659 108.676010 0.000000 0.000000 1.000000 1.000000 1.000000
185 1 84.260057 159.269481 84.260057 159.269481 0.000000 0.000000 1.000000 1.000000 1.000000
186 1 177.240254 110.424663 177.240254 110.424663 -0.000000 0.000000 1.000000 1.000000 1.000000
187 1 259.337762 231.046943 -0.969434 231.046943 -0.000000 -0.000000 1.000000 1.000000 1.000000
188 1 0.037421 248.008069 0.037421 248.008069 -0.000000 -0.000000 1.000000 1.000000 1.000000
189 1 150.244846 210.252024 150.244846 210.252024 0.000000 -0.000000 1.000000 1.000000 1.000000
190 1 251.786294 74.835304 -8.520902 74.835304 -0.000000 0.000000 1.000000 1.000000 1.000000
191 1 105.302382 198.474554 105.302382 198.474554 0.000000 0.000000 1.000000 1.000000 1.000000
192 1 88.595910 13.785797 88.595910 13.785797 -0.000000 -0.000000 1.000000 1.000000 1.000000
193 1 233.887341 182.078042 233.887341 182.078042 0.000000 -0.000000 1.000000 1.000000 1.000000
194 1 142.028919 177.651735 142.028919 177.651735 0.000001 0.000001 1.000000 1.000000 1.000000
195 1 37.111168 256.253800 37.111168 256.253800 0.000000 0.000000 1.000000 1.000000 1.000000
196 1 257.098885 113.332608 -3.208311 113.332608 0.000000 0.000000 1.000000 1.000000 1.000000
197 1 241.116096 66.132408 241.116096 66.132408 -0.000000 0.000000 1.000000 1.000000 1.000000
198 1 190.344591 89.387709 190.344591 89.387709 -0.000000 0.000000 1.000000 1.000000 1.000000
199 1 260.133326 234.278318 -0.173870 234.278318 0.000000 -0.000000 1.000000 1.000000 1.000000
200 1 198.561060 125.993658 198.561060 125.993658 0.000000 -0.000000 1.000000 1.000000 1.000000
201 1 55.857075 12.009022 55.857075 12.009022 0.000000 -0.000000 1.000000 1.000000 1.000000
202 1 171.729988 244.871586 171.729988 244.871586 0.000000 0.000000 1.000000 1.000000 1.000000
203 1 118.850788 57.684842 118.850788 57.684842 -0.000000 -0.000000 1.000000 1.000000 1.000000
204 1 173.738429 217.997883 173.738429 217.997883 0.000000 -0.000000 1.000000 1.000000 1.000000
205 1 77.705093 85.571365 77.705093 85.571365 -0.000000 -0.000000 1.000000 1.000000 1.000000
206 1 94.658797 85.823350 94.658797 85.823350 0.000000 -0.000000 1.000000 1.000000 1.000000
207 1 240.430332 27.116815 240.430332 27.116815 0.000000 -0.000000 1.000000 1.000000 1.000000
208 1 220.101940 87.640972 220.101940 87.640972 -0.000000 0.000000 1.000000 1.000000 1.000000
209 1 162.114133 158.888885 162.114133 158.888885 0.000000 -0.000000 1.000000 1.000000 1.000000
210 1 121.144632 138.663571 121.144632 138.663571 -0.000000 0.000000 1.000000 1.000000 1.000000
211 1 175.610568 253.229393 175.610568 -7.077803 0.000000 -0.000000 1.000000 1.000000 1.000000
212 1 216.632272 167.274128 216.632272 167.274128 0.000000 0.000000 1.000000 1.000000 1.000000
213 1 248.602068 227.248638 248.602068 227.248638 0.000000 -0.000000 1.000000 1.000000 1.000000
214 1 92.739781 182.224612 92.739781 182.224612 -0.000000 0.000000 1.000000 1.000000 1.000000
215 1 132.624502 95.136867 132.624502 95.136867 -0.000000 0.000000 1.000000 1.000000 1.000000
216 1 191.499042 73.050066 191.499042 73.050066 0.000000 0.000000 1.000000 1.000000 1.000000
217 1 208.298133 131.859492 208.298133 131.859492 0.000000 -0.000000 1.000000 1.000000 1.000000
218 1 207.572876 152.213875 207.572876 152.213875 -0.000000 -0.000000 1.000000 1.000000 1.000000
219 1 78.355513 248.390386 78.355513 248.390386 0.000000 0.000000 1.000000 1.000000 1.000000
220 1 29.207964 79.714916 29.207964 79.714916 -0.000000 -0.000000 1.000000 1.000000 1.000000
221 1 105.074305 151.563109 105.074305 151.563109 -0.000000 -0.000000 1.000000 1.000000 1.000000
222 1 226.148481 92.962604 226.148481 92.962604 -0.000000 0.000000 1.000000 1.000000 1.000000
223 1 39.982572 173.420115 39.982572 173.420115 0.000000 0.000000 1.000000 1.000000 1.000000
224 1 219.673786 48.536163 219.673786 48.536163 -0.000000 -0.000000 1.000000 1.000000 1.000000
225 1 194.992340 74.833854 194.992340 74.833854 -0.000000 -0.000000 1.000000 1.000000 1.000000
226 1 121.158169 221.408972 121.158169 221.408972 -0.000000 0.000000 1.000000 1.000000 1.000000
227 1 104.105161 105.849041 104.105161 105.849041 0.000000 0.000000 1.000000 1.000000 1.000000
228 1 125.647104 131.122038 125.647104 131.122038 0.000000 -0.000000 1.000000 1.000000 1.000000
229 1 186.188761 162.250477 186.188761 162.250477 0.000000 0.000000 1.000000 1.000000 1.000000
230 1 239.832608 155.533237 239.832608 155.533237 0.000000 0.000000 1.000000 1.000000 1.000000
231 1 78.743036 204.093567 78.743036 204.093567 0.000000 -0.000000 1.000000 1.000000 1.000000
232 1 171.184911 2.766111 171.184911 2.766111 -0.000000 -0.000000 1.000000 1.000000 1.000000
233 1 7.436741 216.954536 7.436741 216.954536 -0.000000 0.000000 1.000000 1.000000 1.000000
234 1 34.196490 254.117182 34.196490 -6.190014 0.000000 0.000000 1.000000 1.000000 1.000000
235 1 39.667033 30.085319 39.667033 30.085319 -0.000000 0.000000 1.000000 1.000000 1.000000
236 1 233.692567 167.936246 233.692567 167.936246 -0.000000 0.000000 1.000000 1.000000 1.000000
237 1 192.282672 135.674999 192.282672 135.674999 -0.000000 0.000000 1.000000 1.000000 1.000000
238 1 208.657085 117.931840 208.657085 117.931840 -0.000000 -0.000000 1.000000 1.000000 1.000000
239 1 40.784134 184.611603 40.784134 184.611603 0.000000 0.000000 1.000000 1.000000 1.000000
240 1 170.008996 48.049742 170.008996 48.049742 0.000000 0.000000 1.000000 1.000000 1.000000
241 1 214.659468 216.468870 214.659468 216.468870 0.000000 0.000000 1.000000 1.000000 1.000000
242 1 118.492620 138.178801 118.492620 138.178801 0.000000 0.000000 1.000000 1.000000 1.000000
243 1 14.996223 250.627953 14.996223 250.627953 0.000000 0.000000 1.000000 1.000000 1.000000
244 1 30.082060 61.471082 30.082060 61.471082 -0.000000 -0.000000 1.000000 1.000000 1.000000
245 1 156.798589 53.349344 156.798589 53.349344 0.000000 -0.000000 1.000000 1.000000 1.000000
246 1 83.067965 69.414183 83.067965 69.414183 0.000000 -0.000000 1.000000 1.000000 1.000000
247 1 11.005727 34.004195 11.005727 34.004195 -0.000000 -0.000000 1.000000 1.000000 1.000000
248 1 240.821488 81.382345 240.821488 81.382345 -0.000000 0.000000 1.000000 1.000000 1.000000
249 1 38.819672 248.600350 38.819672 248.600350 -0.000000 -0.000000 1.000000 1.000000 1.000000
250 1 33.060016 213.481012 33.060016 213.481012 0.000000 0.000000 1.000000 1.000000 1.000000
251 1 236.076794 71.088468 236.076794 71.088468 -0.000000 -0.000000 1.000000 1.000000 1.000000
252 1 129.867661 90.636134 129.867661 90.636134 -0.000000 -0.000000 1.000000 1.000000 1.000000
253 1 11.584166 147.304865 11.584166 147.304865 -0.000000 -0.000000 1.000000 1.000000 1.000000
254 1 11.729707 123.045831 272.036903 123.045831 0.000000 0.000000 1.000000 1.000000 1.000000
255 1 245.893057 186.399805 245.893057 186.399805 -0.000000 -0.000000 1.000000 1.000000 1.000000
256 1 126.043865 25.790699 126.043865 25.790699 -0.000000 -0.000000 1.000000 1.000000 1.000000
257 1 38.897002 59.018832 38.897002 59.018832 0.000000 0.000000 1.000000 1.000000 1.000000
258 1 64.556046 153.781448 64.556046 153.781448 -0.000000 -0.000000 1.000000 1.000000 1.000000
259 1 227.352992 199.362416 227.352992 199.362416 -0.000000 0.000000 1.000000 1.000000 1.000000
260 1 48.223121 98.395550 48.223121 98.395550 0.000000 0.000000 1.000000 1.000000 1.000000
261 1 66.989601 258.495847 66.989601 258.495847 -0.000000 0.000000 1.000000 1.000000 1.000000
262 1 115.883968 45.595729 115.883968 45.595729 -0.000000 0.000000 1.000000 1.000000 1.000000
263 1 22.508085 251.203923 22.508085 251.203923 -0.000000 0.000000 1.000000 1.000000 1.000000
264 1 69.584935 80.078690 69.584935 80.078690 -0.000000 -0.000000 1.000000 1.000000 1.000000
265 1 36.550365 224.654835 36.550365 224.654835 -0.000000 0.000000 1.000000 1.000000 1.000000
266 1 45.084986 23.207599 45.084986 23.207599 -0.000000 0.000000 1.000000 1.000000 1.000000
267 1 70.677371 69.096120 70.677371 69.096120 0.000000 0.000000 1.000000 1.000000 1.000000
268 1 99.456094 190.505830 99.456094 190.505830 0.000000 -0.000000 1.000000 1.000000 1.000000
269 1 16.439038 248.753413 16.439038 248.753413 -0.000000 0.000000 1.000000 1.000000 1.000000
270 1 77.678694 135.821622 77.678694 135.821622 -0.000000 0.000000 1.000000 1.000000 1.000000
271 1 8.561420 159.827143 8.561420 159.827143 0.000000 0.000000 1.000000 1.000000 1.000000
272 1 121.989715 14.028748 121.989715 14.028748 -0.000000 -0.000000 1.000000 1.000000 1.000000
273 1 51.259447 156.667919 51.259447 156.667919 0.000000 -0.000000 1.000000 1.000000 1.000000
274 1 163.659268 47.254010 163.659268 47.254010 0.000000 -0.000000 1.000000 1.000000 1.000000
275 1 199.168902 25.917223 199.168902 25.917223 -0.000000 -0.000000 1.000000 1.000000 1.000000
276 1 257.793443 220.185476 -2.513753 220.185476 0.000000 0.000000 1.000000 1.000000 1.000000
277 1 252.566676 213.018367 252.566676 213.018367 -0.000000 0.000000 1.000000 1.000000 1.000000
278 1 35.394822 189.712476 35.394822 189.712476 -0.000000 -0.000000 1.000000 1.000000 1.000000
279 1 85.890791 138.065368 85.890791 138.065368 0.000000 -0.000000 1.000000 1.000000 1.000000
280 1 152.396173 59.040628 152.396173 59.040628 0.000000 -0.000000 1.000000 1.000000 1.000000
281 1 4.344529 67.646546 4.344529 67.646546 -0.000000 -0.000000 1.000000 1.000000 1.000000
282 1 27.270496 59.423226 27.270496 59.423226 0.000000 0.000000 1.000000 1.000000 1.000000
283 1 186.957869 223.893347 186.957869 223.893347 0.000000 -0.000000 1.000000 1.000000 1.000000
284 1 238.419176 247.033050 238.419176 247.033050 0.000000 -0.000000 1.000000 1.000000 1.000000
285 1 71.701469 162.854644 71.701469 162.854644 0.000000 0.000000 1.000000 1.000000 1.000000
286 1 172.327770 20.746550 172.327770 20.746550 -0.000000 0.000000 1.000000 1.000000 1.000000
287 1 144.567300 173.456384 144.567300 173.456384 0.000001 -0.000000 1.000000 1.000000 1.000000
288 1 231.072967 232.885698 231.072967 232.885698 -0.000000 0.000000 1.000000 1.000000 1.000000
289 1 228.525726 63.460567 228.525726 63.460567 -0.000000 -0.000000 1.000000 1.000000 1.000000
290 1 31.714195 160.612960 31.714195 160.612960 -0.000000 0.000000 1.000000 1.000000 1.000000
291 1 233.523366 219.483000 233.523366 219.483000 -0.000000 -0.000000 1.000000 1.000000 1.000000
292 1 250.006176 73.360612 250.006176 73.360612 -0.000000 -0.000000 1.000000 1.000000 1.000000
293 1 30.190888 196.841535 30.190888 196.841535 -0.000000 -0.000000 1.000000 1.000000 1.000000
294 1 115.211416 41.355734 115.211416 41.355734 0.000000 -0.000000 1.000000 1.000000 1.000000
295 1 223.777741 217.021141 223.777741 217.021141 -0.000000 0.000000 1.000000 1.000000 1.000000
296 1 101.454201 75.533237 101.454201 75.533237 0.000000 -0.000000 1.000000 1.000000 1.000000
297 1 95.206739 97.423195 95.206739 97.423195 0.000000 -0.000000 1.000000 1.000000 1.000000
298 1 112.935488 177.403017 112.935488 177.403017 0.000000 0.000000 1.000000 1.000000 1.000000
299 1 231.445197 70.900211 231.445197 70.900211 -0.000000 -0.000000 1.000000 1.000000 1.000000
300 1 182.098932 89.110145 182.098932 89.110145 0.000000 -0.000000 1.000000 1.000000 1.000000
301 1 128.161345 94.967404 128.161345 94.967404 -0.000000 0.000000 1.000000 1.000000 1.000000
302 1 47.309851 100.374791 47.309851 100.374791 -0.000000 0.000000 1.000000 1.000000 1.000000
303 1 8.506623 122.974174 268.813819 122.974174 -0.000000 -0.000000 1.000000 1.000000 1.000000
304 1 17.186585 168.532733 17.186585 168.532733 0.000000 0.000000 1.000000 1.000000 1.000000
305 1 176.626424 125.642725 176.626424 125.642725 0.000000 -0.000000 1.000000 1.000000 1.000000
306 1 224.266466 41.644301 224.266466 41.644301 0.000000 -0.000000 1.000000 1.000000 1.000000
307 1 92.390296 218.502659 92.390296 218.502659 -0.000000 -0.000000 1.000000 1.000000 1.000000
308 1 98.593972 214.343434 98.593972 214.343434 0.000000 0.000000 1.000000 1.000000 1.000000
309 1 250.274337 211.293263 -10.032859 211.293263 0.000000 -0.000000 1.000000 1.000000 1.000000
310 1 131.149064 109.967632 131.149064 109.967632 0.000000 -0.000000 1.000000 1.000000 1.000000
311 1 1.769588 74.619039 262.076784 74.619039 -0.000000 -0.000000 1.000000 1.000000 1.000000
312 1 171.920520 176.635129 171.920520 176.635129 0.000000 0.000000 1.000000 1.000000 1.000000
313 1 57.687255 230.389294 57.687255 230.389294 0.000000 -0.000000 1.000000 1.000000 1.000000
314 1 103.883427 189.001082 103.883427 189.001082 0.000000 0.000000 1.000000 1.000000 1.000000
315 1 29.168949 201.923499 29.168949 201.923499 0.000000 -0.000000 1.000000 1.000000 1.000000
316 1 12.630427 37.697969 12.630427 37.697969 0.000000 0.000000 1.000000 1.000000 1.000000