ITEM: TIMESTEP
1100.000000
ITEM: NUMBER OF ATOMS
5000
ITEM: BOX BOUNDS xy xz yz
0 231.767899 0
0 231.767899 0
0 2 0
ITEM: ATOMS id type x y xu yu vx vy radius m z
0 1 109.861823 229.019785 109.861823 229.019785 0.000000 0.000000 1.000000 1.000000 1.000000
1 1 36.536332 174.198054 36.536332 174.198054 0.000000 -0.000000 1.000000 1.000000 1.000000
2 1 64.496674 108.872153 64.496674 108.872153 0.000000 0.000000 1.000000 1.000000 1.000000
3 1 88.814693 221.519205 88.814693 -10.248694 -0.000000 -0.000000 1.000000 1.000000 1.000000
4 1 72.104859 198.404202 72.104859 198.404202 0.000000 0.000000 1.000000 1.000000 1.000000
5 1 25.370006 109.633666 25.370006 109.633666 0.000000 0.000000 1.000000 1.000000 1.000000
6 1 204.613246 10.019449 204.613246 10.019449 -0.000000 -0.000000 1.000000 1.000000 1.000000
7 1 31.372619 30.842912 31.372619 30.842912 0.000000 -0.000000 1.000000 1.000000 1.000000
8 1 86.170549 166.430478 86.170549 166.430478 -0.000000 -0.000000 1.000000 1.000000 1.000000
9 1 19.780252 121.298363 19.780252 121.298363 0.000000 -0.000000 1.000000 1.000000 1.000000
10 1 204.061923 49.088364 204.061923 49.088364 0.000000 0.000000 1.000000 1.000000 1.000000
11 1 32.052454 98.279645 32.052454 98.279645 0.000000 0.000000 1.000000 1.000000 1.000000
12 1 209.371086 170.385639 209.371086 170.385639 0.000000 0.000000 1.000000 1.000000 1.000000
13 1 193.620298 188.426523 193.620298 188.426523 0.000000 0.000000 1.000000 1.000000 1.000000
14 1 192.790230 86.929667 192.790230 86.929667 0.000000 -0.000000 1.000000 1.000000 1.000000
15 1 227.844305 27.153536 -3.923594 27.153536 0.000000 -0.000000 1.000000 1.000000 1.000000
16 1 30.881405 114.963095 30.881405 114.963095 0.000000 -0.000000 1.000000 1.000000 1.000000
17 1 45.402705 63.933696 45.402705 63.933696 0.000000 0.000000 1.000000 1.000000 1.000000
18 1 130.050952 228.528781 130.050952 228.528781 -0.000000 -0.000000 1.000000 1.000000 1.000000
19 1 114.558139 45.450943 114.558139 45.450943 0.000000 0.000000 1.000000 1.000000 1.000000
20 1 110.819048 172.503758 110.819048 172.503758 0.000000 -0.000000 1.000000 1.000000 1.000000
21 1 145.143929 5.004363 145.143929 5.004363 0.000000 -0.000000 1.000000 1.000000 1.000000
22 1 65.102723 67.222700 65.102723 67.222700 0.000000 -0.000000 1.000000 1.000000 1.000000
23 1 226.934549 32.881426 226.934549 32.881426 -0.000000 0.000000 1.000000 1.000000 1.000000
24 1 144.807426 23.821729 144.807426 23.821729 -0.000000 0.000000 1.000000 1.000000 1.000000
25 1 3.624590 89.815103 3.624590 89.815103 0.000000 0.000000 1.000000 1.000000 1.000000
26 1 164.100391 81.225928 164.100391 81.225928 0.000000 -0.000000 1.000000 1.000000 1.000000
27 1 145.248292 42.332813 145.248292 42.332813 0.000000 0.000000 1.000000 1.000000 1.000000
28 1 218.860654 56.269218 -12.907245 56.269218 0.000000 0.000000 1.000000 1.000000 1.000000
29 1 136.815474 120.430775 136.815474 120.430775 -0.000000 0.000000 1.000000 1.000000 1.000000
30 1 162.071305 113.562333 162.071305 113.562333 0.000000 -0.000000 1.000000 1.000000 1.000000
31 1 100.591668 154.654482 100.591668 154.654482 -0.000000 0.000000 1.000000 1.000000 1.000000
32 1 63.271092 11.166745 63.271092 11.166745 -0.000000 0.000000 1.000000 1.000000 1.000000
33 1 208.436773 68.327897 208.436773 68.327897 0.000000 0.000000 1.000000 1.000000 1.000000
34 1 158.726408 37.591286 158.726408 37.591286 -0.000000 0.000000 1.000000 1.000000 1.000000
35 1 62.499687 215.654950 62.499687 215.654950 0.000000 0.000000 1.000000 1.000000 1.000000
36 1 197.277391 29.892085 197.277391 29.892085 0.000000 -0.000000 1.000000 1.000000 1.000000
37 1 112.253552 30.161180 112.253552 30.161180 -0.000000 -0.000000 1.000000 1.000000 1.000000
38 1 177.468725 47.078567 177.468725 47.078567 -0.000000 0.000000 1.000000 1.000000 1.000000
39 1 96.901280 135.891471 96.901280 135.891471 0.000000 -0.000000 1.000000 1.000000 1.000000
40 1 228.026679 84.909953 -3.741220 84.909953 0.000000 0.000000 1.000000 1.000000 1.000000
41 1 99.600972 227.069761 99.600972 227.069761 0.000000 -0.000000 1.000000 1.000000 1.000000
42 1 80.324605 26.584780 80.324605 26.584780 -0.000000 -0.000000 1.000000 1.000000 1.000000
43 1 49.458387 124.139448 49.458387 124.139448 -0.000000 0.000000 1.000000 1.000000 1.000000
44 1 75.636813 81.019868 75.636813 81.019868 0.000000 -0.000000 1.000000 1.000000 1.000000
45 1 164.256615 118.008250 164.256615 118.008250 -0.000000 0.000000 1.000000 1.000000 1.000000
46 1 66.661024 189.970645 66.661024 189.970645 -0.000000 -0.000000 1.000000 1.000000 1.000000
47 1 64.580905 218.054764 64.580905 218.054764 0.000000 0.000000 1.000000 1.000000 1.000000
48 1 195.849420 15.976564 195.849420 15.976564 0.000000 -0.000000 1.000000 1.000000 1.000000
49 1 143.271956 205.174489 143.271956 205.174489 -0.000000 0.000000 1.000000 1.000000 1.000000
50 1 156.403765 160.442695 156.403765 160.442695 -0.000000 0.000000 1.000000 1.000000 1.000000
51 1 17.827188 83.464193 17.827188 83.464193 -0.000000 0.000000 1.000000 1.000000 1.000000
52 1 72.291344 48.677859 72.291344 48.677859 0.000000 0.000000 1.000000 1.000000 1.000000
53 1 203.993923 67.973665 203.993923 67.973665 -0.000000 -0.000000 1.000000 1.000000 1.000000
54 1 39.208422 158.587349 39.208422 158.587349 0.000000 -0.000000 1.000000 1.000000 1.000000
55 1 149.939486 19.788201 149.939486 19.788201 -0.000000 -0.000000 1.000000 1.000000 1.000000
56 1 80.197939 222.498557 80.197939 222.498557 0.000000 0.000000 1.000000 1.000000 1.000000
57 1 58.865942 188.576794 58.865942 188.576794 0.000000 0.000000 1.000000 1.000000 1.000000
58 1 110.371841 7.568590 110.371841 7.568590 0.000000 0.000000 1.000000 1.000000 1.000000
59 1 53.950823 9.279629 53.950823 241.047528 0.000000 -0.000000 1.000000 1.000000 1.000000
60 1 224.421042 23.237693 224.421042 23.237693 0.000000 -0.000000 1.000000 1.000000 1.000000
61 1 185.364292 148.165250 185.364292 148.165250 -0.000000 0.000000 1.000000 1.000000 1.000000
62 1 40.990839 198.506773 40.990839 198.506773 0.000000 0.000000 1.000000 1.000000 1.000000
63 1 193.370204 69.051900 193.370204 69.051900 -0.000000 0.000000 1.000000 1.000000 1.000000
64 1 135.337035 19.203306 135.337035 19.203306 -0.000000 -0.000000 1.000000 1.000000 1.000000
65 1 94.818549 74.658268 94.818549 74.658268 -0.000000 0.000000 1.000000 1.000000 1.000000
66 1 208.089783 97.992536 208.089783 97.992536 -0.000000 -0.000000 1.000000 1.000000 1.000000
67 1 81.844934 164.356161 81.844934 164.356161 0.000000 -0.000000 1.000000 1.000000 1.000000
68 1 90.433552 68.877859 90.433552 68.877859 -0.000000 0.000000 1.000000 1.000000 1.000000
69 1 43.757714 147.466324 43.757714 147.466324 0.000000 0.000000 1.000000 1.000000 1.000000
70 1 44.508964 159.907985 44.508964 159.907985 0.000000 0.000000 1.000000 1.000000 1.000000
71 1 186.677071 106.479397 186.677071 106.479397 -0.000000 0.000000 1.000000 1.000000 1.000000
72 1 112.072562 187.395433 112.072562 187.395433 -0.000000 -0.000000 1.000000 1.000000 1.000000
73 1 91.154558 21.179249 91.154558 21.179249 -0.000000 0.000000 1.000000 1.000000 1.000000
74 1 45.935007 61.178345 45.935007 61.178345 -0.000000 -0.000000 1.000000 1.000000 1.000000
75 1 160.389646 183.926445 160.389646 183.926445 -0.000000 0.000000 1.000000 1.000000 1.000000
76 1 23.953235 160.339533 23.953235 160.339533 -0.000000 0.000000 1.000000 1.000000 1.000000
77 1 108.254003 20.543167 108.254003 20.543167 0.000000 -0.000000 1.000000 1.000000 1.000000
78 1 114.762396 54.649868 114.762396 54.649868 -0.000000 0.000000 1.000000 1.000000 1.000000
79 1 165.945413 141.064874 165.945413 141.064874 -0.000000 0.000000 1.000000 1.000000 1.000000
80 1 207.834092 203.946288 207.834092 203.946288 -0.000000 0.000000 1.000000 1.000000 1.000000
81 1 221.557159 49.583959 221.557159 49.583959 -0.000000 0.000000 1.000000 1.000000 1.000000
82 1 110.099117 162.088359 110.099117 162.088359 -0.000000 0.000000 1.000000 1.000000 1.000000
83 1 133.592295 44.386323 133.592295 44.386323 -0.000000 -0.000000 1.000000 1.000000 1.000000
84 1 34.453404 157.045755 34.453404 157.045755 -0.000000 0.000000 1.000000 1.000000 1.000000
85 1 208.422726 2.959228 208.422726 2.959228 0.000000 -0.000000 1.000000 1.000000 1.000000
86 1 52.780479 7.251068 52.780479 239.018967 -0.000000 0.000000 1.000000 1.000000 1.000000
87 1 42.695969 116.688939 42.695969 116.688939 -0.000000 -0.000000 1.000000 1.000000 1.000000
88 1 15.603148 35.512120 15.603148 35.512120 -0.000000 -0.000000 1.000000 1.000000 1.000000
89 1 227.620011 225.447485 -4.147888 225.447485 0.000000 0.000000 1.000000 1.000000 1.000000
90 1 161.303897 72.000390 161.303897 72.000390 0.000000 0.000000 1.000000 1.000000 1.000000
91 1 24.164597 39.296450 24.164597 39.296450 0.000000 0.000000 1.000000 1.000000 1.000000
92 1 55.029922 93.907809 55.029922 93.907809 -0.000000 -0.000000 1.000000 1.000000 1.000000
93 1 127.784408 229.523072 127.784408 229.523072 0.000000 0.000000 1.000000 1.000000 1.000000
94 1 88.766103 90.421738 88.766103 90.421738 -0.000000 0.000000 1.000000 1.000000 1.000000
95 1 21.827944 13.340794 21.827944 13.340794 -0.000000 -0.000000 1.000000 1.000000 1.000000
96 1 86.800053 64.972592 86.800053 64.972592 0.000000 0.000000 1.000000 1.000000 1.000000
97 1 90.181345 129.895884 90.181345 129.895884 0.000000 -0.000000 1.000000 1.000000 1.000000
98 1 34.521613 176.198060 34.521613 176.198060 0.000000 -0.000000 1.000000 1.000000 1.000000
99 1 94.333250 100.029080 94.333250 100.029080 -0.000000 0.000000 1.000000 1.000000 1.000000
100 1 155.491619 59.669270 155.491619 59.669270 -0.000000 -0.000000 1.000000 1.000000 1.000000
101 1 177.850919 8.635643 177.850919 8.635643 -0.000000 0.000000 1.000000 1.000000 1.000000
102 1 167.687349 151.079449 167.687349 151.079449 -0.000000 0.000000 1.000000 1.000000 1.000000
103 1 42.861492 4.310955 42.861492 236.078854 0.000000 0.000000 1.000000 1.000000 1.000000
104 1 95.947389 27.365745 95.947389 27.365745 0.000000 0.000000 1.000000 1.000000 1.000000
105 1 201.844260 86.959689 201.844260 86.959689 0.000000 0.000000 1.000000 1.000000 1.000000
106 1 35.228687 71.492668 35.228687 71.492668 0.000000 0.000000 1.000000 1.000000 1.000000
107 1 9.598746 138.703323 9.598746 138.703323 -0.000000 -0.000000 1.000000 1.000000 1.000000
108 1 90.962141 98.003194 90.962141 98.003194 -0.000000 -0.000000 1.000000 1.000000 1.000000
109 1 75.570869 150.306111 75.570869 150.306111 -0.000000 0.000000 1.000000 1.000000 1.000000
110 1 165.367740 192.624251 165.367740 192.624251 0.000000 -0.000000 1.000000 1.000000 1.000000
111 1 214.969066 145.769095 214.969066 145.769095 -0.000000 0.000000 1.000000 1.000000 1.000000
112 1 49.439046 128.907789 49.439046 128.907789 0.000000 0.000000 1.000000 1.000000 1.000000
113 1 12.368116 166.299937 12.368116 166.299937 -0.000000 0.000000 1.000000 1.000000 1.000000
114 1 187.949654 85.448377 187.949654 85.448377 -0.000000 -0.000000 1.000000 1.000000 1.000000
115 1 30.538720 51.973828 30.538720 51.973828 -0.000000 -0.000000 1.000000 1.000000 1.000000
116 1 125.801697 216.468747 125.801697 216.468747 0.000000 -0.000000 1.000000 1.000000 1.000000
117 1 51.097391 32.214130 51.097391 32.214130 -0.000000 -0.000000 1.000000 1.000000 1.000000
118 1 7.884976 72.382842 239.652875 72.382842 0.000000 0.000000 1.000000 1.000000 1.000000
119 1 110.699540 169.776157 110.699540 169.776157 -0.000000 0.000000 1.000000 1.000000 1.000000
120 1 95.094299 92.769969 95.094299 92.769969 -0.000000 -0.000000 1.000000 1.000000 1.000000
121 1 117.683690 153.551200 117.683690 153.551200 -0.000000 -0.000000 1.000000 1.000000 1.000000
122 1 51.611268 4.992434 51.611268 4.992434 -0.000000 0.000000 1.000000 1.000000 1.000000
123 1 201.246721 33.369648 201.246721 33.369648 0.000000 -0.000000 1.000000 1.000000 1.000000
124 1 21.918868 212.569421 21.918868 212.569421 0.000000 0.000000 1.000000 1.000000 1.000000
125 1 204.681892 167.100737 204.681892 167.100737 -0.000000 -0.000000 1.000000 1.000000 1.000000
126 1 231.501256 106.905962 -0.266643 106.905962 -0.000000 -0.000000 1.000000 1.000000 1.000000
127 1 102.767825 71.199565 102.767825 71.199565 -0.000000 -0.000000 1.000000 1.000000 1.000000
128 1 165.757619 222.751223 165.757619 222.751223 -0.000000 -0.000000 1.000000 1.000000 1.000000
129 1 168.526245 219.316078 168.526245 219.316078 0.000000 0.000000 1.000000 1.000000 1.000000
130 1 192.800051 172.163010 192.800051 172.163010 0.000000 -0.000000 1.000000 1.000000 1.000000
131 1 7.584413 166.742266 7.584413 166.742266 0.000000 -0.000000 1.000000 1.000000 1.000000
132 1 7.310902 172.503860 7.310902 172.503860 -0.000000 -0.000000 1.000000 1.000000 1.000000
133 1 144.059048 49.225866 144.059048 49.225866 -0.000000 -0.000000 1.000000 1.000000 1.000000
134 1 88.126622 26.712110 88.126622 26.712110 0.000000 0.000000 1.000000 1.000000 1.000000
135 1 175.663382 75.449369 175.663382 75.449369 0.000000 0.000000 1.000000 1.000000 1.000000
136 1 66.312750 93.312155 66.312750 93.312155 0.000000 0.000000 1.000000 1.000000 1.000000
137 1 133.495326 165.887613 133.495326 165.887613 -0.000000 -0.000000 1.000000 1.000000 1.000000
138 1 21.602670 76.230136 21.602670 76.230136 0.000000 0.000000 1.000000 1.000000 1.000000
139 1 60.741164 33.657888 60.741164 33.657888 0.000000 -0.000000 1.000000 1.000000 1.000000
140 1 141.345086 135.742938 141.345086 135.742938 0.000000 -0.000000 1.000000 1.000000 1.000000
141 1 181.418529 98.090702 181.418529 98.090702 -0.000000 -0.000000 1.000000 1.000000 1.000000
142 1 84.721088 194.525873 84.721088 194.525873 -0.000000 0.000000 1.000000 1.000000 1.000000
143 1 161.148572 187.940107 161.148572 187.940107 -0.000000 0.000000 1.000000 1.000000 1.000000
144 1 58.805816 38.360433 58.805816 38.360433 0.000000 0.000000 1.000000 1.000000 1.000000
145 1 134.345455 49.459505 134.345455 49.459505 0.000000 0.000000 1.000000 1.000000 1.000000
146 1 54.591382 154.042229 54.591382 154.042229 -0.000000 -0.000000 1.000000 1.000000 1.000000
147 1 138.538825 223.609105 138.538825 223.609105 -0.000000 -0.000000 1.000000 1.000000 1.000000
148 1 111.258458 13.579215 111.258458 13.579215 -0.000001 0.000000 1.000000 1.000000 1.000000
149 1 69.931707 132.156152 69.931707 132.156152 -0.000000 0.000000 1.000000 1.000000 1.000000
150 1 25.938860 104.757637 25.938860 104.757637 -0.000000 0.000000 1.000000 1.000000 1.000000
151 1 38.627220 57.201524 38.627220 57.201524 -0.000000 -0.000000 1.000000 1.000000 1.000000
152 1 163.590205 86.935197 163.590205 86.935197 -0.000000 0.000000 1.000000 1.000000 1.000000
153 1 220.199677 204.736646 220.199677 204.736646 0.000000 -0.000000 1.000000 1.000000 1.000000
154 1 41.100855 192.886244 41.100855 192.886244 -0.000000 -0.000000 1.000000 1.000000 1.000000
155 1 158.961521 206.567423 158.961521 206.567423 -0.000000 0.000000 1.000000 1.000000 1.000000
156 1 68.880249 216.099778 68.880249 216.099778 0.000000 -0.000000 1.000000 1.000000 1.000000
157 1 164.943919 32.497395 164.943919 32.497395 -0.000000 0.000000 1.000000 1.000000 1.000000
158 1 82.869508 23.597541 82.869508 23.597541 -0.000000 -0.000000 1.000000 1.000000 1.000000
159 1 174.532837 202.738168 174.532837 202.738168 -0.000000 0.000000 1.000000 1.000000 1.000000
160 1 82.546132 93.928400 82.546132 93.928400 -0.000000 -0.000000 1.000000 1.000000 1.000000
161 1 98.480383 30.374943 98.480383 30.374943 0.000000 0.000000 1.000000 1.000000 1.000000
162 1 33.632835 131.200015 33.632835 131.200015 -0.000000 0.000000 1.000000 1.000000 1.000000
163 1 193.660657 3.418881 193.660657 3.418881 -0.000000 -0.000000 1.000000 1.000000 1.000000
164 1 172.802701 53.344816 172.802701 53.344816 0.000000 -0.000000 1.000000 1.000000 1.000000
165 1 90.959687 150.623051 90.959687 150.623051 0.000000 0.000000 1.000000 1.000000 1.000000
166 1 71.750005 20.180250 71.750005 20.180250 0.000000 0.000000 1.000000 1.000000 1.000000
167 1 116.900297 172.503124 116.900297 172.503124 -0.000000 -0.000000 1.000000 1.000000 1.000000
168 1 162.361769 82.751843 162.361769 82.751843 0.000000 -0.000000 1.000000 1.000000 1.000000
169 1 167.286811 133.451989 167.286811 133.451989 -0.000000 0.000000 1.000000 1.000000 1.000000
170 1 175.976649 18.945760 175.976649 18.945760 -0.000000 0.000000 1.000000 1.000000 1.000000
171 1 211.343120 110.624045 211.343120 110.624045 0.000000 0.000000 1.000000 1.000000 1.000000
172 1 14.960960 181.060480 14.960960 181.060480 0.000000 0.000000 1.000000 1.000000 1.000000
173 1 17.124666 32.379018 17.124666 32.379018 0.000000 -0.000000 1.000000 1.000000 1.000000
174 1 120.716306 73.127734 120.716306 73.127734 0.000000 -0.000000 1.000000 1.000000 1.000000
175 1 47.307934 217.291796 47.307934 217.291796 -0.000000 0.000000 1.000000 1.000000 1.000000
176 1 108.433486 112.627331 108.433486 112.627331 -0.000000 -0.000000 1.000000 1.000000 1.000000
177 1 114.281620 81.156000 114.281620 81.156000 -0.000000 0.000000 1.000000 1.000000 1.000000
178 1 214.092715 80.719212 214.092715 80.719212 -0.000000 -0.000000 1.000000 1.000000 1.000000
179 1 47.091473 126.553308 47.091473 126.553308 -0.000000 -0.000000 1.000000 1.000000 1.000000
180 1 56.945142 106.947470 56.945142 106.947470 -0.000000 -0.000000 1.000000 1.000000 1.000000
181 1 44.467888 70.253481 44.467888 70.253481 0.000000 -0.000000 1.000000 1.000000 1.000000
182 1 147.480910 129.094191 147.480910 129.094191 0.000000 -0.000000 1.000000 1.000000 1.000000
183 1 83.635319 97.162511 83.635319 97.162511 -0.000000 0.000000 1.000000 1.000000 1.000000
184 1 155.638090 203.597587 155.638090 203.597587 0.000000 0.000000 1.000000 1.000000 1.000000
185 1 101.619126 15.515022 101.619126 15.515022 0.000000 0.000000 1.000000 1.000000 1.000000
186 1 156.515750 116.791837 156.515750 116.791837 0.000000 -0.000000 1.000000 1.000000 1.000000
187 1 58.587162 174.346539 58.587162 174.346539 -0.000000 -0.000000 1.000000 1.000000 1.000000
188 1 122.875658 175.408213 122.875658 175.408213 -0.000000 -0.000000 1.000000 1.000000 1.000000
189 1 196.850685 19.121822 196.850685 19.121822 -0.000000 -0.000000 1.000000 1.000000 1.000000
190 1 99.332843 156.411595 99.332843 156.411595 -0.000000 0.000000 1.000000 1.000000 1.000000
191 1 102.497922 30.250927 102.497922 30.250927 0.000000 -0.000000 1.000000 1.000000 1.000000
192 1 203.608873 58.840479 203.608873 58.840479 0.000000 -0.000000 1.000000 1.000000 1.000000
193 1 218.900314 99.418119 218.900314 99.418119 -0.000000 0.000000 1.000000 1.000000 1.000000
194 1 223.383066 88.042420 223.383066 88.042420 -0.000000 -0.000000 1.000000 1.000000 1.000000
195 1 85.024041 92.915331 85.024041 92.915331 0.000000 -0.000000 1.000000 1.000000 1.000000
196 1 205.848879 73.251967 205.848879 73.251967 -0.000000 -0.000000 1.000000 1.000000 1.000000
197 1 190.128702 206.001492 190.128702 206.001492 0.000000 -0.000000 1.000000 1.000000 1.000000
198 1 74.477448 74.159890 74.477448 74.159890 -0.000000 0.000000 1.000000 1.000000 1.000000
199 1 201.967509 13.423199 201.967509 13.423199 0.000000 0.000000 1.000000 1.000000 1.000000
200 1 142.762767 14.421857 142.762767 14.421857 0.000000 -0.000000 1.000000 1.000000 1.000000
201 1 207.932524 231.398964 207.932524 -0.368935 -0.000000 -0.000000 1.000000 1.000000 1.000000
202 1 222.235664 2.390823 222.235664 2.390823 0.000000 -0.000000 1.000000 1.000000 1.000000
203 1 42.549743 92.138119 42.549743 92.138119 0.000000 0.000000 1.000000 1.000000 1.000000
204 1 26.090475 130.187114 26.090475 130.187114 0.000000 -0.000000 1.000000 1.000000 1.000000
205 1 47.855116 192.016850 47.855116 192.016850 0.000000 -0.000000 1.000000 1.000000 1.000000
206 1 29.699860 176.418699 29.699860 176.418699 0.000000 0.000000 1.000000 1.000000 1.000000
207 1 147.912642 87.403333 147.912642 87.403333 0.000000 -0.000000 1.000000 1.000000 1.000000
208 1 11.233260 60.315576 11.233260 60.315576 0.000000 0.000000 1.000000 1.000000 1.000000
209 1 214.600207 168.218667 214.600207 168.218667 -0.000000 0.000000 1.000000 1.000000 1.000000
210 1 219.808300 207.959828 219.808300 207.959828 -0.000000 0.000000 1.000000 1.000000 1.000000
211 1 6.134199 158.939686 6.134199 158.939686 0.000000 -0.000000 1.000000 1.000000 1.000000
212 1 207.304341 229.091353 207.304341 229.091353 -0.000000 0.000000 1.000000 1.000000 1.000000
213 1 171.108660 218.018597 171.108660 218.018597 -0.000000 -0.000000 1.000000 1.000000 1.000000
214 1 129.462170 66.624011 129.462170 66.624011 -0.000000 -0.000000 1.000000 1.000000 1.000000
215 1 146.305549 219.202815 146.305549 219.202815 0.000000 0.000000 1.000000 1.000000 1.000000
216 1 0.809626 181.171758 0.809626 181.171758 -0.000000 0.000000 1.000000 1.000000 1.000000
217 1 97.898141 5.262934 97.898141 5.262934 -0.000000 0.000000 1.000000 1.000000 1.000000
218 1 162.306716 165.461941 162.306716 165.461941 0.000000 0.000000 1.000000 1.000000 1.000000
219 1 211.036147 103.803670 211.036147 103.803670 0.000000 0.000000 1.000000 1.000000 1.000000
220 1 127.901104 189.047439 127.901104 189.047439 0.000000 0.000000 1.000000 1.000000 1.000000
221 1 114.282202 96.596150 114.282202 96.596150 0.000000 0.000000 1.000000 1.000000 1.000000
222 1 100.765016 157.838024 100.765016 157.838024 0.000000 0.000000 1.000000 1.000000 1.000000
223 1 128.757526 200.545992 128.757526 200.545992 0.000000 0.000000 1.000000 1.000000 1.000000
224 1 43.553270 123.129480 43.553270 123.129480 0.000000 0.000000 1.000000 1.000000 1.000000
225 1 217.373692 176.585463 217.373692 176.585463 -0.000000 0.000000 1.000000 1.000000 1.000000
226 1 25.892313 187.217694 25.892313 187.217694 -0.000000 -0.000000 1.000000 1.000000 1.000000
227 1 210.246341 199.892376 210.246341 199.892376 0.000000 0.000000 1.000000 1.000000 1.000000
228 1 2.725945 199.723635 2.725945 199.723635 0.000000 -0.000000 1.000000 1.000000 1.000000
229 1 152.600381 112.642638 152.600381 112.642638 -0.000000 0.000000 1.000000 1.000000 1.000000
230 1 55.242509 118.297520 55.242509 118.297520 -0.000000 -0.000000 1.000000 1.000000 1.000000
231 1 5.911984 6.108230 5.911984 6.108230 0.000000 -0.000000 1.000000 1.000000 1.000000
232 1 32.964008 187.669279 32.964008 187.669279 0.000000 -0.000000 1.000000 1.000000 1.000000
233 1 164.992542 85.502428 164.992542 85.502428 -0.000000 0.000000 1.000000 1.000000 1.000000
234 1 211.012177 225.450338 211.012177 225.450338 -0.000000 -0.000000 1.000000 1.000000 1.000000
235 1 50.022120 154.971725 50.022120 154.971725 -0.000000 0.000000 1.000000 1.000000 1.000000
236 1 93.420457 68.479768 93.420457 68.479768 0.000000 -0.000000 1.000000 1.000000 1.000000
237 1 123.671080 97.004305 123.671080 97.004305 -0.000000 -0.000000 1.000000 1.000000 1.000000
238 1 85.324826 126.941239 85.324826 126.941239 0.000000 0.000000 1.000000 1.000000 1.000000
239 1 98.374402 168.987996 98.374402 168.987996 0.000000 -0.000000 1.000000 1.000000 1.000000
240 1 44.264093 209.746965 44.264093 209.746965 -0.000000 0.000000 1.000000 1.000000 1.000000
241 1 10.940678 114.729911 10.940678 114.729911 -0.000000 -0.000000 1.000000 1.000000 1.000000
242 1 202.678798 220.209470 202.678798 220.209470 0.000000 0.000000 1.000000 1.000000 1.000000
243 1 22.023398 156.910223 22.023398 156.910223 -0.000000 0.000000 1.000000 1.000000 1.000000
244 1 7.121655 164.786268 7.121655 164.786268 -0.000000 -0.000000 1.000000 1.000000 1.000000
245 1 108.927011 109.889221 108.927011 109.889221 0.000000 0.000000 1.000000 1.000000 1.000000
246 1 184.174381 67.901253 184.174381 67.901253 -0.000000 -0.000000 1.000000 1.000000 1.000000
247 1 145.414629 17.775786 145.414629 17.775786 0.000000 0.000000 1.000000 1.000000 1.000000
248 1 122.683253 126.274358 122.683253 126.274358 0.000000 0.000000 1.000000 1.000000 1.000000
249 1 109.605449 214.461773 109.605449 214.461773 -0.000000 0.000000 1.000000 1.000000 1.000000
250 1 70.095538 129.338929 70.095538 129.338929 0.000000 0.000000 1.000000 1.000000 1.000000
251 1 226.759479 109.903211 226.759479 109.903211 0.000000 0.000000 1.000000 1.000000 1.000000
252 1 33.568978 150.834329 33.568978 150.834329 -0.000000 0.000000 1.000000 1.000000 1.000000
253 1 10.986158 65.228435 10.986158 65.228435 0.000000 0.000000 1.000000 1.000000 1.000000
254 1 63.467325 31.073673 63.467325 31.073673 0.000000 0.000000 1.000000 1.000000 1.000000
255 1 120.614880 175.422781 120.614880 175.422781 0.000000 -0.000000 1.000000 1.000000 1.000000
256 1 5.513071 92.008392 237.280970 92.008392 -0.000000 0.000000 1.000000 1.000000 1.000000
257 1 8.196733 27.684166 8.196733 27.684166 0.000000 -0.000000 1.000000 1.000000 1.000000
258 1 175.268892 182.692628 175.268892 182.692628 0.000000 -0.000000 1.000000 1.000000 1.000000
259 1 145.267697 224.860643 145.267697 224.860643 -0.000000 -0.000000 1.000000 1.000000 1.000000
260 1 82.793105 149.867998 82.793105 149.867998 0.000000 -0.000000 1.000000 1.000000 1.000000
261 1 176.630629 54.597878 176.630629 54.597878 -0.000000 -0.000000 1.000000 1.000000 1.000000
262 1 133.779865 138.623318 133.779865 138.623318 -0.000000 0.000000 1.000000 1.000000 1.000000
263 1 188.751329 10.414750 188.751329 10.414750 0.000000 -0.000000 1.000000 1.000000 1.000000
264 1 139.125441 211.293312 139.125441 211.293312 -0.000000 -0.000000 1.000000 1.000000 1.000000
265 1 52.844958 103.779557 52.844958 103.779557 0.000000 -0.000000 1.000000 1.000000 1.000000
266 1 151.728226 109.080227 151.728226 109.080227 0.000000 -0.000000 1.000000 1.000000 1.000000
267 1 71.797728 130.676946 71.797728 130.676946 0.000000 0.000000 1.000000 1.000000 1.000000
268 1 212.620550 221.781766 212.620550 221.781766 -0.000000 -0.000000 1.000000 1.000000 1.000000
269 1 94.864262 213.263460 94.864262 213.263460 -0.000000 -0.000000 1.000000 1.000000 1.000000
270 1 91.196724 160.712938 91.196724 160.712938 -0.000000 -0.000000 1.000000 1.000000 1.000000
271 1 133.192736 38.585169 133.192736 38.585169 0.000000 0.000000 1.000000 1.000000 1.000000
272 1 217.995720 163.017724 217.995720 163.017724 -0.000000 0.000000 1.000000 1.000000 1.000000
273 1 140.226928 47.860703 140.226928 47.860703 0.000000 0.000000 1.000000 1.000000 1.000000
274 1 52.523597 124.487010 52.523597 124.487010 0.000000 0.000000 1.000000 1.000000 1.000000
275 1 41.055641 213.242786 41.055641 213.242786 0.000000 0.000000 1.000000 1.000000 1.000000
276 1 65.368055 209.695864 65.368055 209.695864 -0.000000 -0.000000 1.000000 1.000000 1.000000
277 1 137.059517 193.397965 137.059517 193.397965 -0.000000 0.000000 1.000000 1.000000 1.000000
278 1 56.817988 184.170159 56.817988 184.170159 0.000000 0.000000 1.000000 1.000000 1.000000
279 1 115.806369 0.353348 115.806369 0.353348 -0.000000 -0.000000 1.000000 1.000000 1.000000
280 1 125.764877 41.852764 125.764877 41.852764 0.000000 0.000000 1.000000 1.000000 1.000000
281 1 149.508536 79.751785 149.508536 79.751785 0.000000 0.000000 1.000000 1.000000 1.000000
282 1 134.863925 167.546559 134.863925 167.546559 0.000000 0.000000 1.000000 1.000000 1.000000
283 1 2.285254 91.442387 234.053153 91.442387 0.000000 -0.000000 1.000000 1.000000 1.000000
284 1 23.097099 197.391913 23.097099 197.391913 0.000000 -0.000000 1.000000 1.000000 1.000000
285 1 104.797313 48.992218 104.797313 48.992218 0.000000 0.000000 1.000000 1.000000 1.000000
286 1 157.237778 224.541403 157.237778 -7.226496 -0.000000 -0.000000 1.000000 1.000000 1.000000
287 1 47.855085 132.287121 47.855085 132.287121 0.000000 -0.000000 1.000000 1.000000 1.000000
288 1 207.808719 151.415838 207.808719 151.415838 0.000000 -0.000000 1.000000 1.000000 1.000000
289 1 135.731347 188.836291 135.731347 188.836291 0.000000 -0.000000 1.000000 1.000000 1.000000
290 1 126.921936 177.208242 126.921936 177.208242 -0.000000 0.000000 1.000000 1.000000 1.000000
291 1 87.629398 148.764804 87.629398 148.764804 0.000000 0.000000 1.000000 1.000000 1.000000
292 1 165.787942 188.413996 165.787942 188.413996 -0.000000 -0.000000 1.000000 1.000000 1.000000
293 1 46.640157 122.675417 46.640157 122.675417 -0.000000 0.000000 1.000000 1.000000 1.000000
294 1 114.881404 59.494192 114.881404 59.494192 -0.000000 0.000000 1.000000 1.000000 1.000000
295 1 30.321654 15.251127 30.321654 15.251127 0.000000 0.000000 1.000000 1.000000 1.000000
296 1 113.678521 207.264625 113.678521 207.264625 -0.000000 0.000000 1.000000 1.000000 1.000000
297 1 220.302511 163.083151 220.302511 163.083151 0.000000 0.000000 1.000000 1.000000 1.000000
298 1 65.973564 127.370510 65.973564 127.370510 -0.000000 0.000000 1.000000 1.000000 1.000000
299 1 49.021132 121.359034 49.021132 121.359034 0.000000 0.000000 1.000000 1.000000 1.000000
300 1 24.795530 21.740915 24.795530 21.740915 -0.000000 0.000000 1.000000 1.000000 1.000000
301 1 231.329049 102.279710 231.329049 102.279710 0.000000 0.000000 1.000000 1.000000 1.000000
302 1 164.000350 224.627923 164.000350 224.627923 -0.000000 -0.000000 1.000000 1.000000 1.000000
303 1 11.031573 176.604924 11.031573 176.604924 0.000000 0.000000 1.000000 1.000000 1.000000
304 1 139.028010 60.636871 139.028010 60.636871 0.000000 0.000000 1.000000 1.000000 1.000000
305 1 44.684706 21.815872 44.684706 21.815872 -0.000000 0.000000 1.000000 1.000000 1.000000
306 1 152.188160 32.796226 152.188160 32.796226 -0.000000 0.000000 1.000000 1.000000 1.000000
307 1 83.580363 173.818409 83.580363 173.818409 0.000000 0.000000 1.000000 1.000000 1.000000
308 1 109.690309 97.442022 109.690309 97.442022 -0.000000 -0.000000 1.000000 1.000000 1.000000
309 1 132.370595 13.037553 132.370595 13.037553 -0.000000 -0.000000 1.000000 1.000000 1.000000
310 1 216.733839 113.813555 216.733839 113.813555 0.000000 -0.000000 1.000000 1.000000 1.000000
311 1 160.896380 197.962572 160.896380 197.962572 -0.000000 -0.000000 1.000000 1.000000 1.000000
312 1 193.057340 124.683459 193.057340 124.683459 0.000000 0.000000 1.000000 1.000000 1.000000
313 1 37.759314 130.031589 37.759314 130.031589 -0.000000 0.000000 1.000000 1.000000 1.000000
314 1 28.168574 189.993128 28.168574 189.993128 0.000000 0.000000 1.000000 1.000000 1.000000
315 1 196.111893 195.223636 196.111893 195.223636 0.000000 -0.000000 1.000000 1.000000 1.000000
316 1 88.504788 104.759993 88.504788 104.759993 -0.000000 0.000000 1.000000 1.000000 1.000000
317 1 170.668629 120.364377 170.668629 120.364377 -0.000000 -0.000000 1.000000 1.000000 1.000000