ITEM: TIMESTEP
2400.000000
ITEM: NUMBER OF ATOMS
5000
ITEM: BOX BOUNDS xy xz yz
0 229.402860 0
0 229.402860 0
0 2 0
ITEM: ATOMS id type x y xu yu vx vy radius m z
0 1 126.382072 205.468448 126.382072 205.468448 0.000000 0.000000 1.000000 1.000000 1.000000
1 1 3.870463 187.838608 3.870463 187.838608 0.000000 -0.000000 1.000000 1.000000 1.000000
2 1 86.263743 184.720619 86.263743 184.720619 -0.000000 0.000000 1.000000 1.000000 1.000000
3 1 51.285950 115.094324 51.285950 115.094324 -0.000000 -0.000000 1.000000 1.000000 1.000000
4 1 172.361187 221.336629 172.361187 -8.066231 -0.000000 -0.000000 1.000000 1.000000 1.000000
5 1 157.226141 48.766390 157.226141 48.766390 -0.000000 0.000000 1.000000 1.000000 1.000000
6 1 96.699442 23.924981 96.699442 23.924981 0.000000 -0.000000 1.000000 1.000000 1.000000
7 1 90.000870 46.688990 90.000870 46.688990 -0.000000 -0.000000 1.000000 1.000000 1.000000
8 1 1.081013 16.507767 230.483873 16.507767 0.000000 -0.000000 1.000000 1.000000 1.000000
9 1 55.353425 25.836483 55.353425 25.836483 0.000000 0.000000 1.000000 1.000000 1.000000
10 1 41.399215 61.708146 41.399215 61.708146 0.000000 0.000000 1.000000 1.000000 1.000000
11 1 41.073556 121.364152 41.073556 121.364152 -0.000000 -0.000000 1.000000 1.000000 1.000000
12 1 139.923708 128.921259 139.923708 128.921259 0.000000 -0.000000 1.000000 1.000000 1.000000
13 1 188.829441 54.478113 188.829441 54.478113 0.000000 -0.000000 1.000000 1.000000 1.000000
14 1 62.558622 149.805806 62.558622 149.805806 -0.000000 -0.000000 1.000000 1.000000 1.000000
15 1 49.436941 26.203392 49.436941 26.203392 0.000000 -0.000000 1.000000 1.000000 1.000000
16 1 197.097772 177.637362 197.097772 177.637362 -0.000000 -0.000000 1.000000 1.000000 1.000000
17 1 117.656723 195.537266 117.656723 195.537266 -0.000000 -0.000000 1.000000 1.000000 1.000000
18 1 21.550833 101.876017 21.550833 101.876017 -0.000000 0.000000 1.000000 1.000000 1.000000
19 1 213.444537 119.590205 213.444537 119.590205 -0.000000 -0.000000 1.000000 1.000000 1.000000
20 1 153.396905 29.153025 153.396905 29.153025 0.000000 0.000000 1.000000 1.000000 1.000000
21 1 99.355750 65.485943 99.355750 65.485943 -0.000000 0.000000 1.000000 1.000000 1.000000
22 1 58.004654 184.956706 58.004654 184.956706 0.000000 0.000000 1.000000 1.000000 1.000000
23 1 77.648077 111.181843 77.648077 111.181843 -0.000000 -0.000000 1.000000 1.000000 1.000000
24 1 72.324991 220.211782 72.324991 -9.191078 -0.000000 0.000000 1.000000 1.000000 1.000000
25 1 26.353037 94.745390 26.353037 94.745390 -0.000000 0.000000 1.000000 1.000000 1.000000
26 1 7.899453 174.668360 7.899453 174.668360 -0.000000 0.000000 1.000000 1.000000 1.000000
27 1 77.007908 133.679310 77.007908 133.679310 -0.000000 -0.000000 1.000000 1.000000 1.000000
28 1 39.627943 69.688465 39.627943 69.688465 -0.000000 0.000000 1.000000 1.000000 1.000000
29 1 193.070809 8.060745 193.070809 8.060745 0.000000 -0.000000 1.000000 1.000000 1.000000
30 1 25.514695 103.404360 25.514695 103.404360 -0.000000 -0.000000 1.000000 1.000000 1.000000
31 1 36.887229 18.853989 36.887229 18.853989 0.000000 -0.000000 1.000000 1.000000 1.000000
32 1 118.957260 170.709233 118.957260 170.709233 -0.000000 0.000000 1.000000 1.000000 1.000000
33 1 224.750534 118.030802 224.750534 118.030802 0.000000 -0.000000 1.000000 1.000000 1.000000
34 1 70.947462 14.978774 70.947462 14.978774 -0.000000 0.000000 1.000000 1.000000 1.000000
35 1 69.629856 192.475205 69.629856 192.475205 -0.000000 0.000000 1.000000 1.000000 1.000000
36 1 26.842071 121.923510 26.842071 121.923510 -0.000000 0.000000 1.000000 1.000000 1.000000
37 1 90.660842 120.340326 90.660842 120.340326 -0.000000 0.000000 1.000000 1.000000 1.000000
38 1 98.969040 26.094349 98.969040 26.094349 -0.000000 -0.000000 1.000000 1.000000 1.000000
39 1 142.721034 95.631368 142.721034 95.631368 0.000000 0.000000 1.000000 1.000000 1.000000
40 1 96.553705 93.193853 96.553705 93.193853 -0.000000 0.000000 1.000000 1.000000 1.000000
41 1 176.339621 167.849627 176.339621 167.849627 -0.000000 -0.000000 1.000000 1.000000 1.000000
42 1 65.798095 138.542603 65.798095 138.542603 0.000000 0.000000 1.000000 1.000000 1.000000
43 1 194.386407 21.018591 194.386407 21.018591 0.000000 -0.000000 1.000000 1.000000 1.000000
44 1 78.400765 153.688245 78.400765 153.688245 0.000000 0.000000 1.000000 1.000000 1.000000
45 1 221.420475 90.520749 -7.982385 90.520749 -0.000000 -0.000000 1.000000 1.000000 1.000000
46 1 8.589165 9.537507 8.589165 9.537507 -0.000000 0.000000 1.000000 1.000000 1.000000
47 1 174.011831 37.801507 174.011831 37.801507 -0.000000 -0.000000 1.000000 1.000000 1.000000
48 1 211.188602 68.158657 211.188602 68.158657 -0.000000 0.000000 1.000000 1.000000 1.000000
49 1 162.957379 154.051746 162.957379 154.051746 0.000000 0.000000 1.000000 1.000000 1.000000
50 1 229.220722 120.087467 -0.182138 120.087467 0.000000 -0.000000 1.000000 1.000000 1.000000
51 1 11.067166 31.594534 240.470026 31.594534 -0.000000 0.000000 1.000000 1.000000 1.000000
52 1 198.843625 4.892529 198.843625 4.892529 0.000000 0.000000 1.000000 1.000000 1.000000
53 1 179.093153 54.959463 179.093153 54.959463 -0.000000 0.000000 1.000000 1.000000 1.000000
54 1 220.225318 170.077283 -9.177542 170.077283 -0.000000 0.000000 1.000000 1.000000 1.000000
55 1 16.261423 44.853156 16.261423 44.853156 0.000000 0.000000 1.000000 1.000000 1.000000
56 1 58.561537 96.867273 58.561537 96.867273 -0.000000 0.000000 1.000000 1.000000 1.000000
57 1 203.078429 42.469572 203.078429 42.469572 -0.000000 0.000000 1.000000 1.000000 1.000000
58 1 134.519137 120.479944 134.519137 120.479944 -0.000000 0.000000 1.000000 1.000000 1.000000
59 1 117.877980 201.130401 117.877980 201.130401 0.000000 0.000000 1.000000 1.000000 1.000000
60 1 53.543124 208.194731 53.543124 -21.208129 0.000000 0.000000 1.000000 1.000000 1.000000
61 1 167.063767 66.038525 167.063767 66.038525 -0.000000 -0.000000 1.000000 1.000000 1.000000
62 1 97.260646 156.929883 97.260646 156.929883 -0.000000 0.000000 1.000000 1.000000 1.000000
63 1 40.658565 187.315922 40.658565 187.315922 -0.000000 -0.000000 1.000000 1.000000 1.000000
64 1 206.749688 185.165553 206.749688 185.165553 0.000000 -0.000000 1.000000 1.000000 1.000000
65 1 183.924818 87.627514 183.924818 87.627514 -0.000000 0.000000 1.000000 1.000000 1.000000
66 1 158.930366 67.171232 158.930366 67.171232 -0.000000 -0.000000 1.000000 1.000000 1.000000
67 1 116.226736 177.151877 116.226736 177.151877 0.000000 -0.000000 1.000000 1.000000 1.000000
68 1 101.869069 20.228695 101.869069 20.228695 0.000000 -0.000000 1.000000 1.000000 1.000000
69 1 189.698384 82.063590 189.698384 82.063590 0.000000 -0.000000 1.000000 1.000000 1.000000
70 1 104.875113 186.744245 104.875113 186.744245 -0.000000 -0.000000 1.000000 1.000000 1.000000
71 1 47.680547 168.947323 47.680547 168.947323 0.000000 -0.000000 1.000000 1.000000 1.000000
72 1 99.181991 68.614379 99.181991 68.614379 0.000000 0.000000 1.000000 1.000000 1.000000
73 1 104.545653 55.324094 104.545653 55.324094 0.000000 0.000000 1.000000 1.000000 1.000000
74 1 156.221652 207.790922 156.221652 207.790922 -0.000000 0.000000 1.000000 1.000000 1.000000
75 1 63.220978 49.025116 63.220978 49.025116 0.000000 -0.000000 1.000000 1.000000 1.000000
76 1 14.537204 50.936464 14.537204 50.936464 0.000000 -0.000000 1.000000 1.000000 1.000000
77 1 205.832979 108.415323 205.832979 108.415323 -0.000000 -0.000000 1.000000 1.000000 1.000000
78 1 122.698943 138.468416 122.698943 138.468416 -0.000000 0.000000 1.000000 1.000000 1.000000
79 1 213.750985 151.638962 213.750985 151.638962 0.000000 -0.000000 1.000000 1.000000 1.000000
80 1 117.162536 198.106881 117.162536 198.106881 -0.000000 0.000000 1.000000 1.000000 1.000000
81 1 107.445313 118.461857 107.445313 118.461857 -0.000000 -0.000000 1.000000 1.000000 1.000000
82 1 66.164027 200.456610 66.164027 200.456610 -0.000000 -0.000000 1.000000 1.000000 1.000000
83 1 23.318349 47.764789 23.318349 47.764789 -0.000000 -0.000000 1.000000 1.000000 1.000000
84 1 48.283769 119.423039 48.283769 119.423039 0.000000 -0.000000 1.000000 1.000000 1.000000
85 1 214.025058 59.276788 214.025058 59.276788 -0.000000 0.000000 1.000000 1.000000 1.000000
86 1 122.794430 166.551925 122.794430 166.551925 0.000000 -0.000000 1.000000 1.000000 1.000000
87 1 227.533725 121.527687 -1.869135 121.527687 0.000000 0.000000 1.000000 1.000000 1.000000
88 1 110.854876 94.745418 110.854876 94.745418 -0.000000 -0.000000 1.000000 1.000000 1.000000
89 1 50.864433 194.018343 50.864433 194.018343 0.000000 -0.000000 1.000000 1.000000 1.000000
90 1 31.933396 127.350999 31.933396 127.350999 -0.000000 0.000000 1.000000 1.000000 1.000000
91 1 174.960276 191.693779 174.960276 191.693779 -0.000000 0.000000 1.000000 1.000000 1.000000
92 1 56.964527 6.685453 56.964527 6.685453 0.000000 -0.000000 1.000000 1.000000 1.000000
93 1 141.625258 202.749734 141.625258 202.749734 0.000000 0.000000 1.000000 1.000000 1.000000
94 1 195.529634 158.752553 195.529634 158.752553 -0.000000 0.000000 1.000000 1.000000 1.000000
95 1 108.026225 67.032331 108.026225 67.032331 0.000000 0.000000 1.000000 1.000000 1.000000
96 1 163.043456 57.466672 163.043456 57.466672 0.000000 0.000000 1.000000 1.000000 1.000000
97 1 126.153932 109.863433 126.153932 109.863433 0.000000 -0.000000 1.000000 1.000000 1.000000
98 1 152.130903 223.297003 152.130903 223.297003 -0.000000 -0.000000 1.000000 1.000000 1.000000
99 1 88.610768 120.664148 88.610768 120.664148 -0.000000 0.000000 1.000000 1.000000 1.000000
100 1 81.418482 147.201325 81.418482 147.201325 0.000000 -0.000000 1.000000 1.000000 1.000000
101 1 156.743517 157.132246 156.743517 157.132246 0.000000 0.000000 1.000000 1.000000 1.000000
102 1 147.202200 180.836968 147.202200 180.836968 -0.000000 -0.000000 1.000000 1.000000 1.000000
103 1 65.255928 184.848941 65.255928 184.848941 0.000000 0.000000 1.000000 1.000000 1.000000
104 1 56.998154 153.888809 56.998154 153.888809 0.000000 0.000000 1.000000 1.000000 1.000000
105 1 68.621087 172.424608 68.621087 172.424608 0.000000 0.000000 1.000000 1.000000 1.000000
106 1 65.855639 87.496769 65.855639 87.496769 -0.000000 -0.000000 1.000000 1.000000 1.000000
107 1 38.027895 162.694512 38.027895 162.694512 0.000000 -0.000000 1.000000 1.000000 1.000000
108 1 201.252222 120.421394 201.252222 120.421394 0.000000 -0.000000 1.000000 1.000000 1.000000
109 1 90.221736 63.271524 90.221736 63.271524 0.000000 0.000000 1.000000 1.000000 1.000000
110 1 41.792696 81.846886 41.792696 81.846886 0.000000 -0.000000 1.000000 1.000000 1.000000
111 1 136.342684 229.225561 136.342684 229.225561 0.000000 -0.000000 1.000000 1.000000 1.000000
112 1 163.844397 63.909250 163.844397 63.909250 0.000000 -0.000000 1.000000 1.000000 1.000000
113 1 71.928753 191.990909 71.928753 191.990909 -0.000000 -0.000000 1.000000 1.000000 1.000000
114 1 39.545562 90.111518 39.545562 90.111518 -0.000000 -0.000000 1.000000 1.000000 1.000000
115 1 197.935735 167.024081 197.935735 167.024081 0.000000 -0.000000 1.000000 1.000000 1.000000
116 1 37.007071 225.950101 37.007071 225.950101 0.000000 0.000000 1.000000 1.000000 1.000000
117 1 17.156629 40.757029 17.156629 40.757029 -0.000000 0.000000 1.000000 1.000000 1.000000
118 1 35.550207 210.363403 35.550207 210.363403 -0.000000 0.000000 1.000000 1.000000 1.000000
119 1 29.211007 135.357522 29.211007 135.357522 0.000000 -0.000000 1.000000 1.000000 1.000000
120 1 84.439655 114.124602 84.439655 114.124602 -0.000000 -0.000000 1.000000 1.000000 1.000000
121 1 195.870781 152.757808 195.870781 152.757808 0.000000 -0.000000 1.000000 1.000000 1.000000
122 1 31.798640 115.462970 31.798640 115.462970 -0.000000 -0.000000 1.000000 1.000000 1.000000
123 1 7.761172 94.069092 7.761172 94.069092 -0.000000 -0.000000 1.000000 1.000000 1.000000
124 1 93.226408 130.573973 93.226408 130.573973 -0.000000 0.000000 1.000000 1.000000 1.000000
125 1 122.463530 125.139340 122.463530 125.139340 0.000000 -0.000000 1.000000 1.000000 1.000000
126 1 24.842023 214.666879 24.842023 214.666879 0.000000 -0.000000 1.000000 1.000000 1.000000
127 1 218.533289 197.874487 218.533289 197.874487 0.000000 0.000000 1.000000 1.000000 1.000000
128 1 45.419779 158.875011 45.419779 158.875011 0.000000 -0.000000 1.000000 1.000000 1.000000
129 1 201.858560 186.938374 201.858560 186.938374 -0.000000 -0.000000 1.000000 1.000000 1.000000
130 1 78.729861 5.572201 78.729861 5.572201 0.000000 -0.000000 1.000000 1.000000 1.000000
131 1 91.122933 188.880330 91.122933 188.880330 -0.000000 0.000000 1.000000 1.000000 1.000000
132 1 34.617388 199.166176 34.617388 199.166176 0.000000 -0.000000 1.000000 1.000000 1.000000
133 1 36.693816 121.697957 36.693816 121.697957 -0.000000 0.000000 1.000000 1.000000 1.000000
134 1 176.384910 151.785864 176.384910 151.785864 -0.000000 0.000000 1.000000 1.000000 1.000000
135 1 54.872236 28.712294 54.872236 28.712294 -0.000000 0.000000 1.000000 1.000000 1.000000
136 1 28.990773 45.737989 28.990773 45.737989 -0.000000 -0.000000 1.000000 1.000000 1.000000
137 1 103.335870 18.508362 103.335870 18.508362 -0.000000 0.000000 1.000000 1.000000 1.000000
138 1 19.368060 7.869334 19.368060 7.869334 0.000000 -0.000000 1.000000 1.000000 1.000000
139 1 191.418415 93.326094 191.418415 93.326094 0.000000 -0.000000 1.000000 1.000000 1.000000
140 1 162.202056 140.237041 162.202056 140.237041 -0.000000 -0.000000 1.000000 1.000000 1.000000
141 1 166.218841 11.980707 166.218841 11.980707 0.000000 -0.000000 1.000000 1.000000 1.000000
142 1 7.430004 152.089587 7.430004 152.089587 -0.000000 0.000000 1.000000 1.000000 1.000000
143 1 219.202795 93.717556 219.202795 93.717556 -0.000000 0.000000 1.000000 1.000000 1.000000
144 1 158.935909 141.095881 158.935909 141.095881 0.000000 0.000000 1.000000 1.000000 1.000000
145 1 108.903364 178.069634 108.903364 178.069634 -0.000000 -0.000000 1.000000 1.000000 1.000000
146 1 157.446536 211.707624 157.446536 211.707624 0.000000 0.000000 1.000000 1.000000 1.000000
147 1 165.811017 5.439840 165.811017 5.439840 -0.000000 -0.000000 1.000000 1.000000 1.000000
148 1 176.798919 55.890422 176.798919 55.890422 0.000000 -0.000000 1.000000 1.000000 1.000000
149 1 41.916507 41.563919 41.916507 41.563919 0.000000 -0.000000 1.000000 1.000000 1.000000
150 1 37.260366 208.051366 37.260366 208.051366 0.000000 0.000000 1.000000 1.000000 1.000000
151 1 13.062168 59.890294 13.062168 59.890294 -0.000000 0.000000 1.000000 1.000000 1.000000
152 1 87.385326 88.898442 87.385326 88.898442 0.000000 0.000000 1.000000 1.000000 1.000000
153 1 190.295988 171.009209 190.295988 171.009209 -0.000000 0.000000 1.000000 1.000000 1.000000
154 1 178.486255 64.629428 178.486255 64.629428 -0.000000 0.000000 1.000000 1.000000 1.000000
155 1 162.509894 185.599215 162.509894 185.599215 -0.000000 -0.000000 1.000000 1.000000 1.000000
156 1 35.991150 54.508674 35.991150 54.508674 0.000000 0.000000 1.000000 1.000000 1.000000
157 1 46.269917 129.594028 46.269917 129.594028 0.000000 0.000000 1.000000 1.000000 1.000000
158 1 198.557406 69.556327 198.557406 69.556327 0.000000 -0.000000 1.000000 1.000000 1.000000
159 1 4.442784 181.953815 4.442784 181.953815 0.000000 -0.000000 1.000000 1.000000 1.000000
160 1 18.861967 128.222082 18.861967 128.222082 0.000000 0.000000 1.000000 1.000000 1.000000
161 1 49.151057 173.263620 49.151057 173.263620 0.000000 -0.000000 1.000000 1.000000 1.000000
162 1 86.193053 213.065912 86.193053 213.065912 0.000000 0.000000 1.000000 1.000000 1.000000
163 1 27.107174 166.033403 27.107174 166.033403 -0.000000 -0.000000 1.000000 1.000000 1.000000
164 1 138.500466 170.488038 138.500466 170.488038 -0.000000 0.000000 1.000000 1.000000 1.000000
165 1 123.974476 79.274046 123.974476 79.274046 0.000000 0.000000 1.000000 1.000000 1.000000
166 1 180.645048 174.039524 180.645048 174.039524 0.000000 -0.000000 1.000000 1.000000 1.000000
167 1 1.647294 105.879113 1.647294 105.879113 0.000000 0.000000 1.000000 1.000000 1.000000
168 1 163.263213 111.212501 163.263213 111.212501 -0.000000 -0.000000 1.000000 1.000000 1.000000
169 1 60.966935 204.159685 60.966935 204.159685 0.000000 0.000000 1.000000 1.000000 1.000000
170 1 228.841012 70.923741 228.841012 70.923741 0.000000 -0.000000 1.000000 1.000000 1.000000
171 1 225.351318 205.520011 -4.051542 205.520011 -0.000000 -0.000000 1.000000 1.000000 1.000000
172 1 226.842385 46.316609 226.842385 46.316609 -0.000000 -0.000000 1.000000 1.000000 1.000000
173 1 85.546822 198.700769 85.546822 198.700769 0.000000 0.000000 1.000000 1.000000 1.000000
174 1 60.891623 38.589326 60.891623 38.589326 -0.000000 0.000000 1.000000 1.000000 1.000000
175 1 6.265376 53.817013 6.265376 53.817013 -0.000000 0.000000 1.000000 1.000000 1.000000
176 1 116.409359 142.813863 116.409359 142.813863 -0.000000 0.000000 1.000000 1.000000 1.000000
177 1 72.657484 82.792811 72.657484 82.792811 -0.000000 0.000000 1.000000 1.000000 1.000000
178 1 73.276188 76.702882 73.276188 76.702882 -0.000000 -0.000000 1.000000 1.000000 1.000000
179 1 221.835476 132.297005 -7.567384 132.297005 0.000000 0.000000 1.000000 1.000000 1.000000
180 1 112.275834 2.743009 112.275834 2.743009 0.000000 0.000000 1.000000 1.000000 1.000000
181 1 15.461037 7.884547 244.863897 7.884547 0.000000 0.000000 1.000000 1.000000 1.000000
182 1 146.082115 107.277672 146.082115 107.277672 -0.000000 0.000000 1.000000 1.000000 1.000000
183 1 26.301596 223.512589 26.301596 223.512589 0.000000 -0.000000 1.000000 1.000000 1.000000
184 1 78.502782 188.769941 78.502782 188.769941 0.000000 0.000000 1.000000 1.000000 1.000000
185 1 44.971397 226.816391 44.971397 226.816391 0.000000 0.000000 1.000000 1.000000 1.000000
186 1 38.749788 65.972682 38.749788 65.972682 0.000000 0.000000 1.000000 1.000000 1.000000
187 1 185.729004 106.488222 185.729004 106.488222 0.000000 -0.000000 1.000000 1.000000 1.000000
188 1 140.538322 3.040754 140.538322 232.443614 0.000000 -0.000000 1.000000 1.000000 1.000000
189 1 34.541439 41.645876 34.541439 41.645876 0.000000 0.000000 1.000000 1.000000 1.000000
190 1 124.577430 228.529394 124.577430 228.529394 0.000000 -0.000000 1.000000 1.000000 1.000000
191 1 154.406678 6.746319 154.406678 6.746319 0.000000 0.000000 1.000000 1.000000 1.000000
192 1 145.909509 109.289909 145.909509 109.289909 0.000000 0.000000 1.000000 1.000000 1.000000
193 1 169.196445 222.375309 169.196445 -7.027551 0.000000 0.000000 1.000000 1.000000 1.000000
194 1 170.360849 24.738118 170.360849 24.738118 -0.000000 -0.000000 1.000000 1.000000 1.000000
195 1 125.679780 13.920177 125.679780 13.920177 0.000000 0.000000 1.000000 1.000000 1.000000
196 1 200.861980 152.552816 200.861980 152.552816 0.000000 -0.000000 1.000000 1.000000 1.000000
197 1 9.928504 96.518351 9.928504 96.518351 0.000000 -0.000000 1.000000 1.000000 1.000000
198 1 48.775017 211.181008 48.775017 211.181008 -0.000000 -0.000000 1.000000 1.000000 1.000000
199 1 56.526306 23.997073 56.526306 23.997073 0.000000 -0.000000 1.000000 1.000000 1.000000
200 1 34.135466 186.763102 34.135466 186.763102 0.000000 -0.000000 1.000000 1.000000 1.000000
201 1 141.390174 0.926510 141.390174 0.926510 -0.000000 -0.000000 1.000000 1.000000 1.000000
202 1 125.202758 25.962079 125.202758 25.962079 0.000000 -0.000000 1.000000 1.000000 1.000000
203 1 206.635808 117.977297 206.635808 117.977297 0.000000 0.000000 1.000000 1.000000 1.000000
204 1 138.376431 35.621585 138.376431 35.621585 0.000000 -0.000000 1.000000 1.000000 1.000000
205 1 141.019086 161.297792 141.019086 161.297792 -0.000000 -0.000000 1.000000 1.000000 1.000000
206 1 211.572060 99.433992 211.572060 99.433992 0.000000 -0.000000 1.000000 1.000000 1.000000
207 1 19.592200 194.471597 19.592200 194.471597 0.000000 0.000000 1.000000 1.000000 1.000000
208 1 216.913716 180.363096 216.913716 180.363096 -0.000000 -0.000000 1.000000 1.000000 1.000000
209 1 223.771002 102.313231 223.771002 102.313231 -0.000000 0.000000 1.000000 1.000000 1.000000
210 1 199.009867 121.367213 199.009867 121.367213 0.000000 -0.000000 1.000000 1.000000 1.000000
211 1 75.082332 61.158876 75.082332 61.158876 -0.000000 -0.000000 1.000000 1.000000 1.000000
212 1 116.364392 207.656044 116.364392 207.656044 0.000000 0.000000 1.000000 1.000000 1.000000
213 1 89.279471 140.521878 89.279471 140.521878 -0.000000 0.000000 1.000000 1.000000 1.000000
214 1 133.818323 13.997522 133.818323 13.997522 -0.000000 0.000000 1.000000 1.000000 1.000000
215 1 190.776663 226.214827 190.776663 226.214827 0.000000 -0.000000 1.000000 1.000000 1.000000
216 1 99.430197 220.475657 99.430197 -8.927203 0.000000 -0.000000 1.000000 1.000000 1.000000
217 1 149.697781 58.939881 149.697781 58.939881 -0.000000 -0.000000 1.000000 1.000000 1.000000
218 1 28.159458 152.079284 28.159458 152.079284 -0.000000 -0.000000 1.000000 1.000000 1.000000
219 1 67.143226 94.068572 67.143226 94.068572 0.000000 0.000000 1.000000 1.000000 1.000000
220 1 226.572658 133.435412 226.572658 133.435412 0.000000 0.000000 1.000000 1.000000 1.000000
221 1 102.786549 187.385467 102.786549 187.385467 0.000000 -0.000000 1.000000 1.000000 1.000000
222 1 24.752831 100.810375 24.752831 100.810375 -0.000000 -0.000000 1.000000 1.000000 1.000000
223 1 76.652111 70.079116 76.652111 70.079116 -0.000000 -0.000000 1.000000 1.000000 1.000000
224 1 32.842590 181.006022 32.842590 181.006022 0.000000 0.000000 1.000000 1.000000 1.000000
225 1 53.516209 177.554852 53.516209 177.554852 0.000000 0.000000 1.000000 1.000000 1.000000
226 1 26.261186 51.575573 26.261186 51.575573 0.000000 -0.000000 1.000000 1.000000 1.000000
227 1 128.955201 52.880806 128.955201 52.880806 -0.000000 -0.000000 1.000000 1.000000 1.000000
228 1 170.917218 211.130331 170.917218 211.130331 0.000000 -0.000000 1.000000 1.000000 1.000000
229 1 179.902469 33.272678 179.902469 33.272678 -0.000000 -0.000000 1.000000 1.000000 1.000000
230 1 20.111076 186.440661 249.513936 186.440661 -0.000000 0.000000 1.000000 1.000000 1.000000
231 1 226.978008 30.747443 226.978008 30.747443 -0.000000 0.000000 1.000000 1.000000 1.000000
232 1 37.741277 125.196975 37.741277 125.196975 0.000000 -0.000000 1.000000 1.000000 1.000000
233 1 187.907239 69.406532 187.907239 69.406532 0.000000 -0.000000 1.000000 1.000000 1.000000
234 1 32.597834 103.713579 32.597834 103.713579 0.000000 -0.000000 1.000000 1.000000 1.000000
235 1 132.786243 143.785108 132.786243 143.785108 -0.000000 -0.000000 1.000000 1.000000 1.000000
236 1 89.860113 223.190405 89.860113 223.190405 0.000000 0.000000 1.000000 1.000000 1.000000
237 1 150.014527 19.320181 150.014527 19.320181 0.000000 -0.000000 1.000000 1.000000 1.000000
238 1 88.598754 153.697701 88.598754 153.697701 0.000000 -0.000000 1.000000 1.000000 1.000000
239 1 189.496687 8.437744 189.496687 8.437744 0.000000 0.000000 1.000000 1.000000 1.000000
240 1 202.060394 176.793137 202.060394 176.793137 -0.000000 0.000000 1.000000 1.000000 1.000000
241 1 122.807477 54.518838 122.807477 54.518838 0.000000 -0.000000 1.000000 1.000000 1.000000
242 1 6.869028 21.270828 6.869028 21.270828 -0.000000 0.000000 1.000000 1.000000 1.000000
243 1 217.927396 5.571583 217.927396 5.571583 -0.000000 -0.000000 1.000000 1.000000 1.000000
244 1 23.430561 95.654364 23.430561 95.654364 0.000000 -0.000000 1.000000 1.000000 1.000000
245 1 28.310951 172.827985 28.310951 172.827985 0.000000 0.000000 1.000000 1.000000 1.000000
246 1 183.750749 218.364410 183.750749 218.364410 0.000000 -0.000000 1.000000 1.000000 1.000000
247 1 91.324325 114.509077 91.324325 114.509077 -0.000000 0.000000 1.000000 1.000000 1.000000
248 1 156.926852 70.123644 156.926852 70.123644 0.000000 0.000000 1.000000 1.000000 1.000000
249 1 211.139134 22.589690 211.139134 22.589690 -0.000000 0.000000 1.000000 1.000000 1.000000
250 1 147.263587 31.194908 147.263587 31.194908 0.000000 0.000000 1.000000 1.000000 1.000000
251 1 21.957798 143.854484 21.957798 143.854484 0.000000 -0.000000 1.000000 1.000000 1.000000
252 1 6.820002 160.609344 236.222862 160.609344 -0.000000 -0.000000 1.000000 1.000000 1.000000
253 1 52.636479 9.913489 52.636479 9.913489 0.000000 -0.000000 1.000000 1.000000 1.000000
254 1 84.174156 0.196746 84.174156 229.599606 0.000000 -0.000000 1.000000 1.000000 1.000000
255 1 119.981168 149.478519 119.981168 149.478519 -0.000000 0.000000 1.000000 1.000000 1.000000
256 1 53.590541 203.640352 53.590541 203.640352 -0.000000 -0.000000 1.000000 1.000000 1.000000
257 1 65.678282 7.433527 65.678282 7.433527 -0.000000 0.000000 1.000000 1.000000 1.000000
258 1 83.794375 184.214295 83.794375 184.214295 0.000000 0.000000 1.000000 1.000000 1.000000
259 1 58.772694 199.131415 58.772694 199.131415 0.000000 0.000000 1.000000 1.000000 1.000000
260 1 80.062078 41.215792 80.062078 41.215792 -0.000000 0.000000 1.000000 1.000000 1.000000
261 1 90.191024 19.090033 90.191024 19.090033 -0.000000 0.000000 1.000000 1.000000 1.000000
262 1 151.752183 70.067007 151.752183 70.067007 0.000000 0.000000 1.000000 1.000000 1.000000
263 1 1.878627 54.902035 1.878627 54.902035 -0.000000 0.000000 1.000000 1.000000 1.000000
264 1 90.674636 59.314717 90.674636 59.314717 -0.000000 0.000000 1.000000 1.000000 1.000000
265 1 32.189677 202.415971 32.189677 202.415971 -0.000000 0.000000 1.000000 1.000000 1.000000
266 1 76.595951 150.941772 76.595951 150.941772 -0.000000 0.000000 1.000000 1.000000 1.000000
267 1 104.312870 35.575559 104.312870 35.575559 0.000000 0.000000 1.000000 1.000000 1.000000
268 1 67.198665 65.520179 67.198665 65.520179 0.000000 0.000000 1.000000 1.000000 1.000000
269 1 79.528836 142.065588 79.528836 142.065588 0.000000 -0.000000 1.000000 1.000000 1.000000
270 1 131.609377 8.361725 131.609377 237.764585 0.000000 -0.000000 1.000000 1.000000 1.000000
271 1 10.416478 220.265200 10.416478 220.265200 0.000000 0.000000 1.000000 1.000000 1.000000
272 1 169.990943 80.036395 169.990943 80.036395 -0.000000 0.000000 1.000000 1.000000 1.000000
273 1 93.671451 97.085539 93.671451 97.085539 0.000000 0.000000 1.000000 1.000000 1.000000
274 1 176.689698 19.944978 176.689698 19.944978 -0.000000 -0.000000 1.000000 1.000000 1.000000
275 1 25.523688 138.241080 25.523688 138.241080 -0.000000 0.000000 1.000000 1.000000 1.000000
276 1 53.486232 109.887962 53.486232 109.887962 -0.000000 0.000000 1.000000 1.000000 1.000000
277 1 153.306399 195.269433 153.306399 195.269433 -0.000000 0.000000 1.000000 1.000000 1.000000
278 1 188.811552 51.912440 188.811552 51.912440 -0.000000 -0.000000 1.000000 1.000000 1.000000
279 1 37.819971 199.931427 37.819971 199.931427 0.000000 -0.000000 1.000000 1.000000 1.000000
280 1 145.280406 0.418899 145.280406 0.418899 -0.000000 -0.000000 1.000000 1.000000 1.000000
281 1 175.869991 91.501557 175.869991 91.501557 -0.000000 0.000000 1.000000 1.000000 1.000000
282 1 147.468100 102.998937 147.468100 102.998937 -0.000000 0.000000 1.000000 1.000000 1.000000
283 1 202.674274 197.113514 202.674274 197.113514 0.000000 -0.000000 1.000000 1.000000 1.000000
284 1 214.112528 70.568663 214.112528 70.568663 0.000000 -0.000000 1.000000 1.000000 1.000000
285 1 203.853604 180.824753 203.853604 180.824753 0.000000 0.000000 1.000000 1.000000 1.000000
286 1 95.989062 148.944889 95.989062 148.944889 -0.000000 0.000000 1.000000 1.000000 1.000000
287 1 101.164061 212.461437 101.164061 212.461437 0.000000 -0.000000 1.000000 1.000000 1.000000
288 1 27.888078 132.808834 27.888078 132.808834 0.000000 0.000000 1.000000 1.000000 1.000000
289 1 12.013582 92.251611 12.013582 92.251611 0.000000 0.000000 1.000000 1.000000 1.000000
290 1 52.935243 60.812568 52.935243 60.812568 -0.000000 -0.000000 1.000000 1.000000 1.000000
291 1 73.274254 141.799959 73.274254 141.799959 0.000000 -0.000000 1.000000 1.000000 1.000000
292 1 102.950769 16.401161 102.950769 16.401161 -0.000000 0.000000 1.000000 1.000000 1.000000
293 1 91.644136 50.924429 91.644136 50.924429 0.000000 0.000000 1.000000 1.000000 1.000000
294 1 225.019933 88.906915 225.019933 88.906915 0.000000 0.000000 1.000000 1.000000 1.000000
295 1 67.692880 191.727314 67.692880 191.727314 -0.000000 -0.000000 1.000000 1.000000 1.000000
296 1 180.947885 226.185965 180.947885 226.185965 -0.000000 -0.000000 1.000000 1.000000 1.000000
297 1 189.857413 130.666026 189.857413 130.666026 0.000000 -0.000000 1.000000 1.000000 1.000000
298 1 18.714680 192.216071 18.714680 192.216071 -0.000000 -0.000000 1.000000 1.000000 1.000000
299 1 7.994770 106.501990 237.397630 106.501990 0.000000 -0.000000 1.000000 1.000000 1.000000
300 1 203.188735 139.238427 203.188735 139.238427 -0.000000 -0.000000 1.000000 1.000000 1.000000
301 1 222.417450 97.588588 222.417450 97.588588 -0.000000 -0.000000 1.000000 1.000000 1.000000
302 1 166.762501 114.791067 166.762501 114.791067 0.000000 -0.000000 1.000000 1.000000 1.000000
303 1 192.361079 58.524580 192.361079 58.524580 -0.000000 -0.000000 1.000000 1.000000 1.000000
304 1 210.611894 228.854756 210.611894 228.854756 0.000000 0.000000 1.000000 1.000000 1.000000
305 1 50.737755 211.904964 50.737755 211.904964 0.000000 -0.000000 1.000000 1.000000 1.000000
306 1 144.048773 197.357052 144.048773 197.357052 -0.000000 0.000000 1.000000 1.000000 1.000000
307 1 53.072065 171.493049 53.072065 171.493049 0.000000 0.000000 1.000000 1.000000 1.000000
308 1 193.108480 81.963108 193.108480 81.963108 0.000000 0.000000 1.000000 1.000000 1.000000
309 1 56.844454 41.742182 56.844454 41.742182 0.000000 0.000000 1.000000 1.000000 1.000000
310 1 212.686748 148.322992 212.686748 148.322992 0.000000 0.000000 1.000000 1.000000 1.000000
311 1 93.797682 16.209107 93.797682 16.209107 -0.000000 0.000000 1.000000 1.000000 1.000000
312 1 180.434624 138.204160 180.434624 138.204160 -0.000000 -0.000000 1.000000 1.000000 1.000000
313 1 19.045034 211.625833 19.045034 211.625833 -0.000000 -0.000000 1.000000 1.000000 1.000000
314 1 159.043326 71.305598 159.043326 71.305598 -0.000000 0.000000 1.000000 1.000000 1.000000
315 1 134.280168 52.640755 134.280168 52.640755 -0.000000 -0.000000 1.000000 1.000000 1.000000
316 1 224.968884 148.374108 224.968884 148.374108 -0.000000 0.000000 1.000000 1.000000 1.000000
317 1 205.383201 183.020840 205.383201 183.020840 -0.000000 -0.000000 1.000000 1.000000 1.000000