ITEM: TIMESTEP
1300.000000
ITEM: NUMBER OF ATOMS
5000
ITEM: BOX BOUNDS xy xz yz
0 223.793108 0
0 223.793108 0
0 2 0
ITEM: ATOMS id type x y xu yu vx vy radius m z
0 1 161.320642 103.359733 161.320642 103.359733 -0.000000 0.000000 1.000000 1.000000 1.000000
1 1 222.622675 121.676862 222.622675 121.676862 -0.000000 -0.000000 1.000000 1.000000 1.000000
2 1 202.091110 36.589970 202.091110 36.589970 0.000000 -0.000000 1.000000 1.000000 1.000000
3 1 144.720429 20.803773 144.720429 20.803773 0.000000 -0.000000 1.000000 1.000000 1.000000
4 1 62.250842 114.862354 62.250842 114.862354 -0.000000 0.000000 1.000000 1.000000 1.000000
5 1 53.829209 85.276247 53.829209 85.276247 0.000000 0.000000 1.000000 1.000000 1.000000
6 1 124.392471 149.328983 124.392471 149.328983 -0.000000 -0.000000 1.000000 1.000000 1.000000
7 1 49.693679 144.984911 49.693679 144.984911 0.000000 -0.000000 1.000000 1.000000 1.000000
8 1 209.778873 104.502611 209.778873 104.502611 -0.000000 -0.000000 1.000000 1.000000 1.000000
9 1 10.785139 32.158922 10.785139 32.158922 -0.000000 0.000000 1.000000 1.000000 1.000000
10 1 199.040860 52.395142 199.040860 52.395142 0.000000 -0.000000 1.000000 1.000000 1.000000
11 1 157.600561 167.434636 157.600561 167.434636 -0.000000 0.000000 1.000000 1.000000 1.000000
12 1 57.708892 113.624766 57.708892 113.624766 0.000000 -0.000000 1.000000 1.000000 1.000000
13 1 92.322484 220.900150 92.322484 220.900150 0.000000 -0.000000 1.000000 1.000000 1.000000
14 1 32.028965 8.947546 32.028965 8.947546 0.000000 0.000000 1.000000 1.000000 1.000000
15 1 97.258892 19.239296 97.258892 19.239296 -0.000000 -0.000000 1.000000 1.000000 1.000000
16 1 179.599148 0.450469 179.599148 224.243577 -0.000000 -0.000000 1.000000 1.000000 1.000000
17 1 34.814438 113.490198 34.814438 113.490198 0.000000 -0.000000 1.000000 1.000000 1.000000
18 1 98.771312 29.344912 98.771312 29.344912 -0.000000 0.000000 1.000000 1.000000 1.000000
19 1 78.596501 9.439710 78.596501 9.439710 -0.000000 -0.000000 1.000000 1.000000 1.000000
20 1 218.888160 170.132551 218.888160 170.132551 0.000000 0.000000 1.000000 1.000000 1.000000
21 1 203.710424 193.728854 203.710424 193.728854 0.000000 -0.000000 1.000000 1.000000 1.000000
22 1 89.463609 123.397264 89.463609 123.397264 -0.000000 0.000000 1.000000 1.000000 1.000000
23 1 25.343628 145.423072 25.343628 145.423072 0.000000 -0.000000 1.000000 1.000000 1.000000
24 1 209.954703 112.846861 209.954703 112.846861 -0.000000 0.000000 1.000000 1.000000 1.000000
25 1 27.926522 83.835432 27.926522 83.835432 0.000000 0.000000 1.000000 1.000000 1.000000
26 1 31.787466 3.778089 31.787466 3.778089 0.000000 -0.000000 1.000000 1.000000 1.000000
27 1 4.865229 20.644747 228.658337 20.644747 -0.000000 -0.000000 1.000000 1.000000 1.000000
28 1 185.843552 143.941133 185.843552 143.941133 -0.000000 0.000000 1.000000 1.000000 1.000000
29 1 216.857539 85.076277 216.857539 85.076277 -0.000000 0.000000 1.000000 1.000000 1.000000
30 1 93.666814 29.618396 93.666814 29.618396 -0.000000 0.000000 1.000000 1.000000 1.000000
31 1 216.271379 217.638485 216.271379 217.638485 0.000000 -0.000000 1.000000 1.000000 1.000000
32 1 37.461152 125.589997 37.461152 125.589997 0.000000 0.000000 1.000000 1.000000 1.000000
33 1 54.069289 59.921686 54.069289 59.921686 -0.000000 -0.000000 1.000000 1.000000 1.000000
34 1 204.387891 69.347888 204.387891 69.347888 0.000000 0.000000 1.000000 1.000000 1.000000
35 1 103.621462 91.375472 103.621462 91.375472 -0.000000 -0.000000 1.000000 1.000000 1.000000
36 1 47.543912 31.204735 47.543912 31.204735 -0.000000 -0.000000 1.000000 1.000000 1.000000
37 1 41.181984 123.119259 41.181984 123.119259 -0.000000 -0.000000 1.000000 1.000000 1.000000
38 1 10.283634 212.082400 234.076742 212.082400 0.000000 -0.000000 1.000000 1.000000 1.000000
39 1 15.886696 38.636998 15.886696 38.636998 0.000000 -0.000000 1.000000 1.000000 1.000000
40 1 22.405353 139.706587 22.405353 139.706587 -0.000000 -0.000000 1.000000 1.000000 1.000000
41 1 205.511898 65.004983 205.511898 65.004983 0.000000 -0.000000 1.000000 1.000000 1.000000
42 1 210.506270 221.118520 210.506270 -2.674588 -0.000000 -0.000000 1.000000 1.000000 1.000000
43 1 188.107043 216.155268 188.107043 216.155268 -0.000000 0.000000 1.000000 1.000000 1.000000
44 1 96.459274 61.603952 96.459274 61.603952 0.000000 -0.000000 1.000000 1.000000 1.000000
45 1 199.639368 13.421106 199.639368 237.214214 -0.000000 0.000000 1.000000 1.000000 1.000000
46 1 164.925802 47.953140 164.925802 47.953140 0.000000 0.000000 1.000000 1.000000 1.000000
47 1 8.153719 90.921097 8.153719 90.921097 0.000000 -0.000000 1.000000 1.000000 1.000000
48 1 4.369607 138.673336 228.162715 138.673336 0.000000 0.000000 1.000000 1.000000 1.000000
49 1 96.308210 113.371508 96.308210 113.371508 0.000000 -0.000000 1.000000 1.000000 1.000000
50 1 203.217160 98.028687 203.217160 98.028687 -0.000000 0.000000 1.000000 1.000000 1.000000
51 1 126.782716 169.023305 126.782716 169.023305 0.000000 0.000000 1.000000 1.000000 1.000000
52 1 197.272988 221.127463 197.272988 221.127463 0.000000 -0.000000 1.000000 1.000000 1.000000
53 1 105.996323 183.491839 105.996323 183.491839 -0.000000 0.000000 1.000000 1.000000 1.000000
54 1 32.053897 181.075913 32.053897 181.075913 -0.000000 -0.000000 1.000000 1.000000 1.000000
55 1 124.097154 19.137731 124.097154 19.137731 -0.000000 0.000000 1.000000 1.000000 1.000000
56 1 164.937633 94.037314 164.937633 94.037314 0.000000 -0.000000 1.000000 1.000000 1.000000
57 1 195.251744 36.459298 195.251744 36.459298 0.000000 0.000000 1.000000 1.000000 1.000000
58 1 126.680626 111.998581 126.680626 111.998581 0.000000 -0.000000 1.000000 1.000000 1.000000
59 1 153.902116 144.098316 153.902116 144.098316 -0.000000 0.000000 1.000000 1.000000 1.000000
60 1 42.743356 206.737420 42.743356 206.737420 -0.000000 -0.000000 1.000000 1.000000 1.000000
61 1 27.823631 154.914546 27.823631 154.914546 0.000000 -0.000000 1.000000 1.000000 1.000000
62 1 104.196719 193.933746 104.196719 193.933746 -0.000000 0.000000 1.000000 1.000000 1.000000
63 1 179.268571 60.699214 179.268571 60.699214 0.000000 0.000000 1.000000 1.000000 1.000000
64 1 193.336074 126.643891 193.336074 126.643891 0.000000 0.000000 1.000000 1.000000 1.000000
65 1 216.524622 165.003868 216.524622 165.003868 -0.000000 -0.000000 1.000000 1.000000 1.000000
66 1 4.951947 169.827028 4.951947 169.827028 0.000000 -0.000000 1.000000 1.000000 1.000000
67 1 146.582151 101.695586 146.582151 101.695586 0.000000 -0.000000 1.000000 1.000000 1.000000
68 1 39.498566 49.083774 39.498566 49.083774 -0.000000 -0.000000 1.000000 1.000000 1.000000
69 1 153.427599 89.571816 153.427599 89.571816 -0.000000 -0.000000 1.000000 1.000000 1.000000
70 1 123.673292 13.651261 123.673292 13.651261 -0.000000 0.000000 1.000000 1.000000 1.000000
71 1 92.930918 16.514715 92.930918 16.514715 -0.000000 -0.000000 1.000000 1.000000 1.000000
72 1 33.198110 162.417534 33.198110 162.417534 -0.000000 0.000000 1.000000 1.000000 1.000000
73 1 63.421887 143.725193 63.421887 143.725193 0.000000 -0.000000 1.000000 1.000000 1.000000
74 1 55.246425 99.431388 55.246425 99.431388 -0.000000 -0.000000 1.000000 1.000000 1.000000
75 1 166.317804 60.341292 166.317804 60.341292 -0.000000 0.000000 1.000000 1.000000 1.000000
76 1 47.118538 94.312381 47.118538 94.312381 -0.000000 -0.000000 1.000000 1.000000 1.000000
77 1 220.806726 116.378761 -2.986382 116.378761 -0.000000 0.000000 1.000000 1.000000 1.000000
78 1 90.362520 223.787379 90.362520 223.787379 0.000000 0.000000 1.000000 1.000000 1.000000
79 1 111.467201 35.687550 111.467201 35.687550 -0.000000 0.000000 1.000000 1.000000 1.000000
80 1 63.663094 140.722032 63.663094 140.722032 0.000000 -0.000000 1.000000 1.000000 1.000000
81 1 108.690485 178.807819 108.690485 178.807819 0.000000 -0.000000 1.000000 1.000000 1.000000
82 1 32.669614 160.298440 32.669614 160.298440 -0.000000 -0.000000 1.000000 1.000000 1.000000
83 1 113.861799 43.715231 113.861799 43.715231 -0.000000 -0.000000 1.000000 1.000000 1.000000
84 1 169.464778 69.211455 169.464778 69.211455 -0.000000 -0.000000 1.000000 1.000000 1.000000
85 1 131.856208 50.967618 131.856208 50.967618 -0.000000 -0.000000 1.000000 1.000000 1.000000
86 1 12.999575 200.532775 12.999575 200.532775 0.000000 0.000000 1.000000 1.000000 1.000000
87 1 181.305327 11.210304 181.305327 11.210304 -0.000000 -0.000000 1.000000 1.000000 1.000000
88 1 118.130615 186.324113 118.130615 186.324113 -0.000000 0.000000 1.000000 1.000000 1.000000
89 1 195.078881 191.817724 195.078881 191.817724 0.000000 -0.000000 1.000000 1.000000 1.000000
90 1 36.540008 129.632486 36.540008 129.632486 -0.000000 0.000000 1.000000 1.000000 1.000000
91 1 179.278415 64.410462 179.278415 64.410462 0.000000 -0.000000 1.000000 1.000000 1.000000
92 1 54.510525 188.097671 54.510525 188.097671 0.000000 0.000000 1.000000 1.000000 1.000000
93 1 40.047332 104.258382 40.047332 104.258382 0.000000 -0.000000 1.000000 1.000000 1.000000
94 1 87.158814 160.787183 87.158814 160.787183 -0.000000 -0.000000 1.000000 1.000000 1.000000
95 1 220.296307 181.570490 220.296307 181.570490 0.000000 0.000000 1.000000 1.000000 1.000000
96 1 52.338859 207.365265 52.338859 207.365265 0.000000 0.000000 1.000000 1.000000 1.000000
97 1 95.059905 160.253190 95.059905 160.253190 0.000000 -0.000000 1.000000 1.000000 1.000000
98 1 19.565833 166.923343 19.565833 166.923343 -0.000000 -0.000000 1.000000 1.000000 1.000000
99 1 121.938008 192.629536 121.938008 192.629536 -0.000000 -0.000000 1.000000 1.000000 1.000000
100 1 211.977406 87.055194 211.977406 87.055194 0.000000 -0.000000 1.000000 1.000000 1.000000
101 1 26.697762 124.773020 26.697762 124.773020 0.000000 -0.000000 1.000000 1.000000 1.000000
102 1 185.453507 108.874453 185.453507 108.874453 0.000000 -0.000000 1.000000 1.000000 1.000000
103 1 191.823080 154.732892 191.823080 154.732892 0.000000 -0.000000 1.000000 1.000000 1.000000
104 1 150.922502 204.573062 150.922502 204.573062 -0.000000 -0.000000 1.000000 1.000000 1.000000
105 1 8.504994 4.617076 8.504994 4.617076 -0.000000 -0.000000 1.000000 1.000000 1.000000
106 1 100.851731 99.718536 100.851731 99.718536 0.000000 0.000000 1.000000 1.000000 1.000000
107 1 118.956204 70.689450 118.956204 70.689450 -0.000000 -0.000000 1.000000 1.000000 1.000000
108 1 149.657881 29.168690 149.657881 29.168690 -0.000000 -0.000000 1.000000 1.000000 1.000000
109 1 7.985564 50.300195 7.985564 50.300195 0.000000 0.000000 1.000000 1.000000 1.000000
110 1 34.879825 10.128375 34.879825 233.921483 0.000000 0.000000 1.000000 1.000000 1.000000
111 1 89.303816 116.827432 89.303816 116.827432 -0.000000 -0.000000 1.000000 1.000000 1.000000
112 1 64.004774 126.101351 64.004774 126.101351 0.000000 0.000000 1.000000 1.000000 1.000000
113 1 67.532787 123.043430 67.532787 123.043430 0.000000 0.000000 1.000000 1.000000 1.000000
114 1 6.677637 141.309818 230.470745 141.309818 0.000000 -0.000000 1.000000 1.000000 1.000000
115 1 221.649142 211.631376 -2.143966 211.631376 -0.000000 0.000000 1.000000 1.000000 1.000000
116 1 104.408531 120.303775 104.408531 120.303775 0.000000 -0.000000 1.000000 1.000000 1.000000
117 1 115.417007 127.325049 115.417007 127.325049 0.000000 0.000000 1.000000 1.000000 1.000000
118 1 154.722307 55.811974 154.722307 55.811974 0.000000 0.000000 1.000000 1.000000 1.000000
119 1 14.841913 150.507415 238.635021 150.507415 -0.000000 -0.000000 1.000000 1.000000 1.000000
120 1 159.481298 24.266646 159.481298 24.266646 -0.000000 -0.000000 1.000000 1.000000 1.000000
121 1 80.305699 220.438047 80.305699 220.438047 0.000000 -0.000000 1.000000 1.000000 1.000000
122 1 43.350598 187.952913 43.350598 187.952913 -0.000000 0.000000 1.000000 1.000000 1.000000
123 1 103.724922 132.708029 103.724922 132.708029 -0.000000 0.000000 1.000000 1.000000 1.000000
124 1 93.348189 169.284645 93.348189 169.284645 -0.000000 0.000000 1.000000 1.000000 1.000000
125 1 142.855960 207.934563 142.855960 207.934563 0.000000 0.000000 1.000000 1.000000 1.000000
126 1 44.242901 192.779298 44.242901 192.779298 0.000000 0.000000 1.000000 1.000000 1.000000
127 1 200.550279 179.109111 200.550279 179.109111 -0.000000 0.000000 1.000000 1.000000 1.000000
128 1 38.996801 142.435231 38.996801 142.435231 -0.000000 -0.000000 1.000000 1.000000 1.000000
129 1 178.047078 79.860401 178.047078 79.860401 -0.000000 0.000000 1.000000 1.000000 1.000000
130 1 34.521508 39.653031 34.521508 39.653031 -0.000000 0.000000 1.000000 1.000000 1.000000
131 1 69.026360 66.566369 69.026360 66.566369 -0.000000 -0.000000 1.000000 1.000000 1.000000
132 1 211.296582 191.413802 211.296582 191.413802 0.000000 -0.000000 1.000000 1.000000 1.000000
133 1 38.209942 115.171228 38.209942 115.171228 -0.000000 0.000000 1.000000 1.000000 1.000000
134 1 59.236597 198.220068 59.236597 198.220068 0.000000 0.000000 1.000000 1.000000 1.000000
135 1 23.150278 80.934131 23.150278 80.934131 0.000000 0.000000 1.000000 1.000000 1.000000
136 1 81.536987 64.472869 81.536987 64.472869 0.000000 0.000000 1.000000 1.000000 1.000000
137 1 123.004103 199.493809 123.004103 199.493809 0.000000 0.000000 1.000000 1.000000 1.000000
138 1 160.146658 54.391101 160.146658 54.391101 0.000000 0.000000 1.000000 1.000000 1.000000
139 1 46.755585 105.846553 46.755585 105.846553 -0.000000 0.000000 1.000000 1.000000 1.000000
140 1 168.411343 99.511624 168.411343 99.511624 0.000000 -0.000000 1.000000 1.000000 1.000000
141 1 59.819422 184.785173 59.819422 184.785173 -0.000000 0.000000 1.000000 1.000000 1.000000
142 1 144.654945 216.709483 144.654945 216.709483 0.000000 -0.000000 1.000000 1.000000 1.000000
143 1 42.654878 85.665707 42.654878 85.665707 -0.000000 0.000000 1.000000 1.000000 1.000000
144 1 45.705966 1.585049 45.705966 225.378157 -0.000000 -0.000000 1.000000 1.000000 1.000000
145 1 216.435387 29.666243 216.435387 29.666243 0.000000 -0.000000 1.000000 1.000000 1.000000
146 1 40.946232 75.892689 40.946232 75.892689 -0.000000 0.000000 1.000000 1.000000 1.000000
147 1 24.246225 113.635079 24.246225 113.635079 0.000000 0.000000 1.000000 1.000000 1.000000
148 1 121.574100 180.241817 121.574100 180.241817 0.000000 -0.000000 1.000000 1.000000 1.000000
149 1 202.022241 6.522797 202.022241 230.315905 0.000000 -0.000000 1.000000 1.000000 1.000000
150 1 169.074945 177.270857 169.074945 177.270857 -0.000000 0.000000 1.000000 1.000000 1.000000
151 1 157.368840 164.505508 157.368840 164.505508 -0.000000 0.000000 1.000000 1.000000 1.000000
152 1 222.069120 22.656483 -1.723988 22.656483 -0.000000 0.000000 1.000000 1.000000 1.000000
153 1 104.288688 155.328665 104.288688 155.328665 -0.000000 -0.000000 1.000000 1.000000 1.000000
154 1 160.621792 139.891815 160.621792 139.891815 -0.000000 0.000000 1.000000 1.000000 1.000000
155 1 146.715023 212.740976 146.715023 -11.052132 -0.000000 -0.000000 1.000000 1.000000 1.000000
156 1 35.717750 76.019694 35.717750 76.019694 -0.000000 -0.000000 1.000000 1.000000 1.000000
157 1 208.808122 194.184456 208.808122 194.184456 -0.000000 -0.000000 1.000000 1.000000 1.000000
158 1 198.755180 199.466712 198.755180 199.466712 -0.000000 0.000000 1.000000 1.000000 1.000000
159 1 79.181355 145.808690 79.181355 145.808690 -0.000000 0.000000 1.000000 1.000000 1.000000
160 1 174.128427 96.825772 174.128427 96.825772 0.000000 0.000000 1.000000 1.000000 1.000000
161 1 148.246096 163.886400 148.246096 163.886400 -0.000000 -0.000000 1.000000 1.000000 1.000000
162 1 105.222159 219.174447 105.222159 219.174447 -0.000000 -0.000000 1.000000 1.000000 1.000000
163 1 59.515849 163.410846 59.515849 163.410846 -0.000000 0.000000 1.000000 1.000000 1.000000
164 1 126.479599 38.886590 126.479599 38.886590 -0.000000 0.000000 1.000000 1.000000 1.000000
165 1 93.000518 69.278201 93.000518 69.278201 -0.000000 -0.000000 1.000000 1.000000 1.000000
166 1 217.763283 129.616655 217.763283 129.616655 0.000000 0.000000 1.000000 1.000000 1.000000
167 1 178.667721 26.160614 178.667721 26.160614 -0.000000 -0.000000 1.000000 1.000000 1.000000
168 1 204.810380 59.987752 204.810380 59.987752 0.000000 0.000000 1.000000 1.000000 1.000000
169 1 195.181561 218.231907 195.181561 218.231907 -0.000000 -0.000000 1.000000 1.000000 1.000000
170 1 137.866624 48.411277 137.866624 48.411277 -0.000000 0.000000 1.000000 1.000000 1.000000
171 1 185.779494 45.780185 185.779494 45.780185 0.000000 -0.000000 1.000000 1.000000 1.000000
172 1 131.202183 41.719794 131.202183 41.719794 0.000000 -0.000000 1.000000 1.000000 1.000000
173 1 82.636777 212.742095 82.636777 -11.051013 -0.000000 0.000000 1.000000 1.000000 1.000000
174 1 197.479330 158.884195 197.479330 158.884195 0.000000 -0.000000 1.000000 1.000000 1.000000
175 1 199.376553 196.905143 199.376553 196.905143 -0.000000 0.000000 1.000000 1.000000 1.000000
176 1 115.760347 203.121338 115.760347 203.121338 -0.000000 -0.000000 1.000000 1.000000 1.000000
177 1 196.326350 223.266184 196.326350 223.266184 0.000000 -0.000000 1.000000 1.000000 1.000000
178 1 124.715275 187.223535 124.715275 187.223535 -0.000000 -0.000000 1.000000 1.000000 1.000000
179 1 117.795196 155.298029 117.795196 155.298029 0.000000 0.000000 1.000000 1.000000 1.000000
180 1 211.864189 132.012109 -11.928919 132.012109 -0.000000 -0.000000 1.000000 1.000000 1.000000
181 1 40.059588 125.749595 40.059588 125.749595 0.000000 -0.000000 1.000000 1.000000 1.000000
182 1 107.223577 133.249199 107.223577 133.249199 0.000000 -0.000000 1.000000 1.000000 1.000000
183 1 191.870545 15.762674 191.870545 15.762674 -0.000000 -0.000000 1.000000 1.000000 1.000000
184 1 155.059183 104.216392 155.059183 104.216392 0.000000 -0.000000 1.000000 1.000000 1.000000
185 1 114.125964 46.334476 114.125964 46.334476 -0.000000 0.000000 1.000000 1.000000 1.000000
186 1 189.575643 49.470246 189.575643 49.470246 0.000000 0.000000 1.000000 1.000000 1.000000
187 1 146.681233 105.172140 146.681233 105.172140 0.000000 -0.000000 1.000000 1.000000 1.000000
188 1 179.792860 53.484011 179.792860 53.484011 -0.000000 -0.000000 1.000000 1.000000 1.000000
189 1 40.153874 85.573884 40.153874 85.573884 -0.000000 0.000000 1.000000 1.000000 1.000000
190 1 213.081949 105.790243 213.081949 105.790243 -0.000000 -0.000000 1.000000 1.000000 1.000000
191 1 158.851275 79.782180 158.851275 79.782180 -0.000000 -0.000000 1.000000 1.000000 1.000000
192 1 212.135236 208.390625 -11.657872 208.390625 -0.000000 0.000000 1.000000 1.000000 1.000000
193 1 195.177873 92.674167 195.177873 92.674167 -0.000000 -0.000000 1.000000 1.000000 1.000000
194 1 2.390200 61.915501 2.390200 61.915501 -0.000000 0.000000 1.000000 1.000000 1.000000
195 1 114.642223 16.533873 114.642223 16.533873 0.000000 -0.000000 1.000000 1.000000 1.000000
196 1 185.962033 195.555578 185.962033 195.555578 0.000000 0.000000 1.000000 1.000000 1.000000
197 1 9.782287 140.957413 9.782287 140.957413 -0.000000 -0.000000 1.000000 1.000000 1.000000
198 1 128.693338 149.019433 128.693338 149.019433 -0.000000 0.000000 1.000000 1.000000 1.000000
199 1 108.158765 222.346860 108.158765 222.346860 0.000000 -0.000000 1.000000 1.000000 1.000000
200 1 101.800236 167.166095 101.800236 167.166095 0.000000 -0.000000 1.000000 1.000000 1.000000
201 1 208.644295 28.446805 208.644295 28.446805 0.000000 -0.000000 1.000000 1.000000 1.000000
202 1 142.177490 182.985906 142.177490 182.985906 -0.000000 0.000000 1.000000 1.000000 1.000000
203 1 46.651210 65.153806 46.651210 65.153806 -0.000000 -0.000000 1.000000 1.000000 1.000000
204 1 39.488921 19.358674 39.488921 19.358674 0.000000 -0.000000 1.000000 1.000000 1.000000
205 1 66.708149 104.265843 66.708149 104.265843 0.000000 0.000000 1.000000 1.000000 1.000000
206 1 60.613928 175.513241 60.613928 175.513241 0.000000 -0.000000 1.000000 1.000000 1.000000
207 1 164.823287 25.356946 164.823287 25.356946 0.000000 0.000000 1.000000 1.000000 1.000000
208 1 120.663203 184.000717 120.663203 184.000717 0.000000 0.000000 1.000000 1.000000 1.000000
209 1 156.512785 72.211574 156.512785 72.211574 0.000000 0.000000 1.000000 1.000000 1.000000
210 1 187.589988 141.904418 187.589988 141.904418 0.000000 -0.000000 1.000000 1.000000 1.000000
211 1 67.372475 53.895225 67.372475 53.895225 -0.000000 0.000000 1.000000 1.000000 1.000000
212 1 117.021273 175.590123 117.021273 175.590123 0.000000 -0.000000 1.000000 1.000000 1.000000
213 1 16.732088 155.285743 16.732088 155.285743 0.000000 0.000000 1.000000 1.000000 1.000000
214 1 47.420802 7.103495 47.420802 7.103495 0.000000 0.000000 1.000000 1.000000 1.000000
215 1 223.693240 100.470394 -0.099868 100.470394 -0.000000 -0.000000 1.000000 1.000000 1.000000
216 1 25.026812 65.325843 25.026812 65.325843 -0.000000 0.000000 1.000000 1.000000 1.000000
217 1 89.326676 96.095365 89.326676 96.095365 -0.000000 -0.000000 1.000000 1.000000 1.000000
218 1 52.477115 177.721119 52.477115 177.721119 -0.000000 0.000000 1.000000 1.000000 1.000000
219 1 92.146405 133.239670 92.146405 133.239670 -0.000000 -0.000000 1.000000 1.000000 1.000000
220 1 18.961044 153.544820 18.961044 153.544820 0.000000 0.000000 1.000000 1.000000 1.000000
221 1 121.704055 17.784034 121.704055 17.784034 -0.000000 0.000000 1.000000 1.000000 1.000000
222 1 104.266424 203.585060 104.266424 203.585060 -0.000000 -0.000000 1.000000 1.000000 1.000000
223 1 96.079803 219.617552 96.079803 219.617552 0.000000 -0.000000 1.000000 1.000000 1.000000
224 1 193.393991 164.469536 193.393991 164.469536 -0.000000 -0.000000 1.000000 1.000000 1.000000
225 1 166.444538 38.839562 166.444538 38.839562 0.000000 0.000000 1.000000 1.000000 1.000000
226 1 49.124886 63.569899 49.124886 63.569899 -0.000000 -0.000000 1.000000 1.000000 1.000000
227 1 78.058875 77.319295 78.058875 77.319295 0.000000 0.000000 1.000000 1.000000 1.000000
228 1 36.380326 159.560994 36.380326 159.560994 0.000000 0.000000 1.000000 1.000000 1.000000
229 1 221.272284 47.310895 -2.520824 47.310895 -0.000000 -0.000000 1.000000 1.000000 1.000000
230 1 51.894146 213.948642 51.894146 213.948642 0.000000 0.000000 1.000000 1.000000 1.000000
231 1 122.647202 31.521436 122.647202 31.521436 0.000000 -0.000000 1.000000 1.000000 1.000000
232 1 184.001086 196.236666 184.001086 196.236666 -0.000000 0.000000 1.000000 1.000000 1.000000
233 1 139.172451 38.003150 139.172451 38.003150 -0.000000 0.000000 1.000000 1.000000 1.000000
234 1 166.625967 213.160221 166.625967 213.160221 -0.000000 -0.000000 1.000000 1.000000 1.000000
235 1 208.220849 197.171259 208.220849 197.171259 -0.000000 -0.000000 1.000000 1.000000 1.000000
236 1 195.775606 188.657741 195.775606 188.657741 -0.000000 -0.000000 1.000000 1.000000 1.000000
237 1 146.279179 139.691356 146.279179 139.691356 -0.000000 0.000000 1.000000 1.000000 1.000000
238 1 124.494298 143.898910 124.494298 143.898910 0.000000 -0.000000 1.000000 1.000000 1.000000
239 1 106.908866 206.154032 106.908866 206.154032 -0.000000 -0.000000 1.000000 1.000000 1.000000
240 1 81.922843 15.032479 81.922843 15.032479 -0.000000 0.000000 1.000000 1.000000 1.000000
241 1 200.410600 88.850060 200.410600 88.850060 0.000000 -0.000000 1.000000 1.000000 1.000000
242 1 215.936855 200.930399 215.936855 200.930399 -0.000000 -0.000000 1.000000 1.000000 1.000000
243 1 135.815077 49.640417 135.815077 49.640417 0.000000 -0.000000 1.000000 1.000000 1.000000
244 1 48.464543 185.823418 48.464543 185.823418 0.000000 0.000000 1.000000 1.000000 1.000000
245 1 51.237557 35.219824 51.237557 35.219824 0.000000 0.000000 1.000000 1.000000 1.000000
246 1 136.949514 31.960532 136.949514 31.960532 -0.000000 0.000000 1.000000 1.000000 1.000000
247 1 216.211004 220.143878 216.211004 -3.649230 0.000000 -0.000000 1.000000 1.000000 1.000000
248 1 135.749171 76.475998 135.749171 76.475998 -0.000000 0.000000 1.000000 1.000000 1.000000
249 1 217.493055 171.791105 217.493055 171.791105 0.000000 0.000000 1.000000 1.000000 1.000000
250 1 22.655466 71.224318 22.655466 71.224318 0.000000 0.000000 1.000000 1.000000 1.000000
251 1 115.196986 105.232616 115.196986 105.232616 0.000000 -0.000000 1.000000 1.000000 1.000000
252 1 80.751385 55.705788 80.751385 55.705788 0.000000 0.000000 1.000000 1.000000 1.000000
253 1 162.475156 72.637014 162.475156 72.637014 0.000000 0.000000 1.000000 1.000000 1.000000
254 1 71.093072 185.604136 71.093072 185.604136 0.000000 0.000000 1.000000 1.000000 1.000000
255 1 38.171972 35.875915 38.171972 35.875915 0.000000 0.000000 1.000000 1.000000 1.000000
256 1 52.790753 209.579730 52.790753 209.579730 0.000000 0.000000 1.000000 1.000000 1.000000
257 1 69.917783 146.831017 69.917783 146.831017 -0.000000 0.000000 1.000000 1.000000 1.000000
258 1 205.909055 197.676945 205.909055 197.676945 0.000000 -0.000000 1.000000 1.000000 1.000000
259 1 50.762715 197.308501 50.762715 197.308501 0.000000 -0.000000 1.000000 1.000000 1.000000
260 1 172.830541 79.503365 172.830541 79.503365 -0.000000 0.000000 1.000000 1.000000 1.000000
261 1 148.531281 103.931496 148.531281 103.931496 -0.000000 0.000000 1.000000 1.000000 1.000000
262 1 31.702031 52.186788 31.702031 52.186788 0.000000 -0.000000 1.000000 1.000000 1.000000
263 1 137.464594 111.224244 137.464594 111.224244 0.000000 0.000000 1.000000 1.000000 1.000000
264 1 99.644552 161.936368 99.644552 161.936368 -0.000000 0.000000 1.000000 1.000000 1.000000
265 1 147.754026 215.624059 147.754026 215.624059 0.000000 0.000000 1.000000 1.000000 1.000000
266 1 17.082674 66.170655 17.082674 66.170655 0.000000 -0.000000 1.000000 1.000000 1.000000
267 1 120.500898 118.136006 120.500898 118.136006 0.000000 -0.000000 1.000000 1.000000 1.000000
268 1 66.731764 110.040365 66.731764 110.040365 -0.000000 -0.000000 1.000000 1.000000 1.000000
269 1 132.252741 114.990493 132.252741 114.990493 -0.000000 -0.000000 1.000000 1.000000 1.000000
270 1 92.711877 144.737488 92.711877 144.737488 0.000000 0.000000 1.000000 1.000000 1.000000
271 1 127.219097 41.488287 127.219097 41.488287 -0.000000 -0.000000 1.000000 1.000000 1.000000
272 1 150.900910 95.916535 150.900910 95.916535 0.000000 0.000000 1.000000 1.000000 1.000000
273 1 204.006214 9.426946 204.006214 9.426946 0.000000 -0.000000 1.000000 1.000000 1.000000
274 1 194.267168 176.544228 194.267168 176.544228 -0.000000 0.000000 1.000000 1.000000 1.000000
275 1 141.113454 85.472457 141.113454 85.472457 0.000000 -0.000000 1.000000 1.000000 1.000000
276 1 168.182259 83.930524 168.182259 83.930524 -0.000000 0.000000 1.000000 1.000000 1.000000
277 1 109.631300 116.516049 109.631300 116.516049 -0.000000 -0.000000 1.000000 1.000000 1.000000
278 1 128.195569 73.555741 128.195569 73.555741 0.000000 -0.000000 1.000000 1.000000 1.000000
279 1 166.498030 16.189164 166.498030 16.189164 0.000000 -0.000000 1.000000 1.000000 1.000000
280 1 220.565037 35.615233 -3.228071 35.615233 -0.000000 -0.000000 1.000000 1.000000 1.000000
281 1 151.282918 3.837591 151.282918 3.837591 0.000000 0.000000 1.000000 1.000000 1.000000
282 1 50.515969 129.136713 50.515969 129.136713 -0.000000 0.000000 1.000000 1.000000 1.000000
283 1 102.497043 109.849620 102.497043 109.849620 -0.000000 0.000000 1.000000 1.000000 1.000000
284 1 137.062186 0.902649 137.062186 224.695757 0.000000 -0.000000 1.000000 1.000000 1.000000
285 1 20.197682 97.879343 20.197682 97.879343 0.000000 -0.000000 1.000000 1.000000 1.000000
286 1 198.642565 9.961408 198.642565 233.754516 0.000000 -0.000000 1.000000 1.000000 1.000000
287 1 187.363786 109.536359 187.363786 109.536359 -0.000000 0.000000 1.000000 1.000000 1.000000
288 1 193.256530 86.300271 193.256530 86.300271 -0.000000 0.000000 1.000000 1.000000 1.000000
289 1 13.500624 128.378685 13.500624 128.378685 0.000000 0.000000 1.000000 1.000000 1.000000
290 1 61.632414 137.876019 61.632414 137.876019 0.000000 0.000000 1.000000 1.000000 1.000000
291 1 4.728120 154.745347 4.728120 154.745347 -0.000000 -0.000000 1.000000 1.000000 1.000000
292 1 181.547359 121.723247 181.547359 121.723247 0.000000 -0.000000 1.000000 1.000000 1.000000
293 1 66.793238 183.513683 66.793238 183.513683 -0.000000 -0.000000 1.000000 1.000000 1.000000
294 1 47.546601 144.259007 47.546601 144.259007 0.000000 0.000000 1.000000 1.000000 1.000000
295 1 149.309153 117.435213 149.309153 117.435213 -0.000000 -0.000000 1.000000 1.000000 1.000000
296 1 40.050501 212.867000 40.050501 212.867000 0.000000 -0.000000 1.000000 1.000000 1.000000
297 1 118.683727 141.949087 118.683727 141.949087 0.000000 0.000000 1.000000 1.000000 1.000000
298 1 66.899050 67.286604 66.899050 67.286604 0.000000 -0.000000 1.000000 1.000000 1.000000
299 1 80.456442 76.784572 80.456442 76.784572 0.000000 -0.000000 1.000000 1.000000 1.000000
300 1 58.186194 48.496153 58.186194 48.496153 -0.000000 -0.000000 1.000000 1.000000 1.000000
301 1 120.812032 20.418449 120.812032 20.418449 0.000000 0.000000 1.000000 1.000000 1.000000
302 1 158.868583 62.301647 158.868583 62.301647 -0.000000 0.000000 1.000000 1.000000 1.000000
303 1 206.615417 180.958463 206.615417 180.958463 -0.000000 0.000000 1.000000 1.000000 1.000000
304 1 97.432258 93.168431 97.432258 93.168431 -0.000000 0.000000 1.000000 1.000000 1.000000
305 1 145.093827 147.856957 145.093827 147.856957 0.000000 -0.000000 1.000000 1.000000 1.000000
306 1 12.338987 18.856515 12.338987 18.856515 0.000000 0.000000 1.000000 1.000000 1.000000
307 1 108.638524 92.773039 108.638524 92.773039 -0.000000 -0.000000 1.000000 1.000000 1.000000
308 1 41.569179 214.230903 41.569179 -9.562205 -0.000000 0.000000 1.000000 1.000000 1.000000
309 1 156.574410 180.916578 156.574410 180.916578 0.000000 0.000000 1.000000 1.000000 1.000000
310 1 31.661627 91.526622 31.661627 91.526622 -0.000000 0.000000 1.000000 1.000000 1.000000
311 1 68.457063 90.123157 68.457063 90.123157 -0.000000 0.000000 1.000000 1.000000 1.000000
312 1 186.413732 92.837543 186.413732 92.837543 0.000000 0.000000 1.000000 1.000000 1.000000
313 1 109.620041 42.793331 109.620041 42.793331 -0.000000 -0.000000 1.000000 1.000000 1.000000
314 1 92.037161 198.644328 92.037161 198.644328 0.000000 0.000000 1.000000 1.000000 1.000000
315 1 42.315347 177.654726 42.315347 177.654726 0.000000 -0.000001 1.000000 1.000000 1.000000
316 1 108.698544 72.773120 108.698544 72.773120 -0.000000 0.000000 1.000000 1.000000 1.000000