ITEM: TIMESTEP
1200.000000
ITEM: NUMBER OF ATOMS
5000
ITEM: BOX BOUNDS xy xz yz
0 292.711146 0
0 292.711146 0
0 2 0
ITEM: ATOMS id type x y xu yu vx vy radius m z
0 1 55.719122 262.071899 55.719122 262.071899 -0.000000 -0.000000 1.000000 1.000000 1.000000
1 1 36.035826 147.956070 36.035826 147.956070 0.000000 -0.000000 1.000000 1.000000 1.000000
2 1 50.948778 213.411391 50.948778 213.411391 0.000000 -0.000000 1.000000 1.000000 1.000000
3 1 194.068595 48.059642 194.068595 48.059642 0.000000 0.000000 1.000000 1.000000 1.000000
4 1 101.570049 26.556460 101.570049 26.556460 -0.000000 0.000000 1.000000 1.000000 1.000000
5 1 145.778039 241.616769 145.778039 241.616769 0.000000 -0.000000 1.000000 1.000000 1.000000
6 1 203.869781 28.113620 203.869781 320.824766 0.000000 -0.000000 1.000000 1.000000 1.000000
7 1 164.382469 157.877470 164.382469 157.877470 -0.000000 0.000000 1.000000 1.000000 1.000000
8 1 276.804250 115.022702 276.804250 115.022702 0.000000 -0.000000 1.000000 1.000000 1.000000
9 1 231.713549 167.211796 231.713549 167.211796 0.000000 0.000000 1.000000 1.000000 1.000000
10 1 133.416503 280.029434 133.416503 280.029434 -0.000000 -0.000000 1.000000 1.000000 1.000000
11 1 196.448285 264.060367 196.448285 264.060367 -0.000000 0.000000 1.000000 1.000000 1.000000
12 1 150.797789 283.218910 150.797789 283.218910 0.000000 -0.000000 1.000000 1.000000 1.000000
13 1 62.066420 69.688452 62.066420 69.688452 0.000000 0.000000 1.000000 1.000000 1.000000
14 1 188.849458 47.636163 188.849458 47.636163 0.000000 0.000000 1.000000 1.000000 1.000000
15 1 174.617544 70.934944 174.617544 70.934944 -0.000000 0.000000 1.000000 1.000000 1.000000
16 1 97.515798 273.463919 97.515798 273.463919 0.000000 0.000000 1.000000 1.000000 1.000000
17 1 231.604581 107.514966 231.604581 107.514966 -0.000000 0.000000 1.000000 1.000000 1.000000
18 1 188.354109 267.147251 188.354109 267.147251 0.000000 -0.000000 1.000000 1.000000 1.000000
19 1 173.753700 189.078762 173.753700 189.078762 -0.000000 0.000000 1.000000 1.000000 1.000000
20 1 173.409663 166.091433 173.409663 166.091433 -0.000000 0.000000 1.000000 1.000000 1.000000
21 1 188.657509 82.321066 188.657509 82.321066 -0.000000 0.000000 1.000000 1.000000 1.000000
22 1 219.601290 83.188496 219.601290 83.188496 0.000000 0.000000 1.000000 1.000000 1.000000
23 1 202.098182 249.701240 202.098182 249.701240 -0.000000 0.000000 1.000000 1.000000 1.000000
24 1 160.563531 90.621566 160.563531 90.621566 -0.000000 0.000000 1.000000 1.000000 1.000000
25 1 32.826903 222.863881 32.826903 222.863881 -0.000000 -0.000000 1.000000 1.000000 1.000000
26 1 139.543794 289.670827 139.543794 289.670827 0.000000 0.000000 1.000000 1.000000 1.000000
27 1 66.963954 132.607552 66.963954 132.607552 -0.000000 -0.000000 1.000000 1.000000 1.000000
28 1 76.510970 169.960881 76.510970 169.960881 0.000000 0.000000 1.000000 1.000000 1.000000
29 1 9.391032 39.832770 302.102178 39.832770 0.000000 -0.000000 1.000000 1.000000 1.000000
30 1 236.866905 268.487723 236.866905 268.487723 -0.000000 0.000000 1.000000 1.000000 1.000000
31 1 186.018715 195.258411 186.018715 195.258411 0.000000 -0.000000 1.000000 1.000000 1.000000
32 1 197.954485 26.721401 197.954485 26.721401 -0.000000 -0.000000 1.000000 1.000000 1.000000
33 1 62.663128 253.447834 62.663128 253.447834 -0.000000 -0.000000 1.000000 1.000000 1.000000
34 1 11.319735 177.423812 11.319735 177.423812 0.000000 0.000000 1.000000 1.000000 1.000000
35 1 187.677048 174.348210 187.677048 174.348210 -0.000000 -0.000000 1.000000 1.000000 1.000000
36 1 21.465779 211.090430 21.465779 211.090430 0.000000 -0.000000 1.000000 1.000000 1.000000
37 1 287.488834 103.444267 287.488834 103.444267 0.000000 0.000000 1.000000 1.000000 1.000000
38 1 28.887554 198.108484 28.887554 198.108484 -0.000000 0.000000 1.000000 1.000000 1.000000
39 1 146.295513 41.551996 146.295513 41.551996 0.000000 0.000000 1.000000 1.000000 1.000000
40 1 57.747660 249.093463 57.747660 249.093463 0.000000 0.000000 1.000000 1.000000 1.000000
41 1 288.624820 198.753695 -4.086326 198.753695 0.000000 0.000000 1.000000 1.000000 1.000000
42 1 9.532569 91.098945 9.532569 91.098945 0.000000 -0.000000 1.000000 1.000000 1.000000
43 1 198.607707 150.837489 198.607707 150.837489 -0.000000 0.000000 1.000000 1.000000 1.000000
44 1 112.624184 35.511283 112.624184 35.511283 -0.000000 0.000000 1.000000 1.000000 1.000000
45 1 177.871104 25.878468 177.871104 25.878468 -0.000000 0.000000 1.000000 1.000000 1.000000
46 1 278.103493 92.258266 278.103493 92.258266 -0.000000 0.000000 1.000000 1.000000 1.000000
47 1 35.818839 256.662719 35.818839 256.662719 0.000000 0.000000 1.000000 1.000000 1.000000
48 1 266.576435 162.050767 266.576435 162.050767 -0.000000 -0.000000 1.000000 1.000000 1.000000
49 1 236.403327 108.334062 236.403327 108.334062 -0.000000 0.000000 1.000000 1.000000 1.000000
50 1 46.951579 115.913583 46.951579 115.913583 -0.000000 0.000000 1.000000 1.000000 1.000000
51 1 275.459285 229.511542 275.459285 229.511542 -0.000000 0.000000 1.000000 1.000000 1.000000
52 1 114.284086 68.109193 114.284086 68.109193 0.000000 -0.000000 1.000000 1.000000 1.000000
53 1 151.053964 201.512456 151.053964 201.512456 -0.000000 -0.000000 1.000000 1.000000 1.000000
54 1 195.097864 290.502328 195.097864 -2.208818 -0.000000 -0.000000 1.000000 1.000000 1.000000
55 1 148.920228 292.206297 148.920228 -0.504849 -0.000000 0.000000 1.000000 1.000000 1.000000
56 1 114.938210 93.705337 114.938210 93.705337 0.000000 -0.000000 1.000000 1.000000 1.000000
57 1 147.060172 60.061018 147.060172 60.061018 -0.000000 -0.000000 1.000000 1.000000 1.000000
58 1 19.590914 194.524334 312.302060 194.524334 0.000000 -0.000000 1.000000 1.000000 1.000000
59 1 2.936989 157.658832 295.648135 157.658832 0.000000 0.000000 1.000000 1.000000 1.000000
60 1 48.964230 241.594378 48.964230 241.594378 -0.000000 -0.000000 1.000000 1.000000 1.000000
61 1 268.795797 18.297783 268.795797 18.297783 -0.000000 0.000000 1.000000 1.000000 1.000000
62 1 254.669020 53.141530 254.669020 53.141530 -0.000000 -0.000000 1.000000 1.000000 1.000000
63 1 183.871398 244.850204 183.871398 244.850204 0.000000 0.000000 1.000000 1.000000 1.000000
64 1 134.030618 256.858252 134.030618 256.858252 0.000000 -0.000000 1.000000 1.000000 1.000000
65 1 184.622895 107.282391 184.622895 107.282391 -0.000000 0.000000 1.000000 1.000000 1.000000
66 1 76.930825 189.104142 76.930825 189.104142 -0.000000 -0.000000 1.000000 1.000000 1.000000
67 1 29.936875 226.060032 29.936875 226.060032 0.000000 0.000000 1.000000 1.000000 1.000000
68 1 137.522772 51.576697 137.522772 51.576697 0.000000 -0.000000 1.000000 1.000000 1.000000
69 1 89.142426 121.520580 89.142426 121.520580 -0.000000 -0.000000 1.000000 1.000000 1.000000
70 1 204.048418 123.710675 204.048418 123.710675 0.000000 0.000000 1.000000 1.000000 1.000000
71 1 129.564904 292.354741 129.564904 292.354741 0.000000 0.000000 1.000000 1.000000 1.000000
72 1 279.445430 100.331049 279.445430 100.331049 -0.000000 0.000000 1.000000 1.000000 1.000000
73 1 18.343677 279.579322 18.343677 279.579322 -0.000000 -0.000000 1.000000 1.000000 1.000000
74 1 137.738655 216.703378 137.738655 216.703378 -0.000000 -0.000000 1.000000 1.000000 1.000000
75 1 16.985934 266.351770 16.985934 266.351770 -0.000000 -0.000000 1.000000 1.000000 1.000000
76 1 201.817285 286.179619 201.817285 -6.531527 -0.000000 0.000000 1.000000 1.000000 1.000000
77 1 1.907169 193.345718 294.618315 193.345718 -0.000000 -0.000000 1.000000 1.000000 1.000000
78 1 116.073493 40.846959 116.073493 40.846959 -0.000000 0.000000 1.000000 1.000000 1.000000
79 1 119.636505 34.511004 119.636505 34.511004 0.000000 -0.000000 1.000000 1.000000 1.000000
80 1 121.696144 176.991622 121.696144 176.991622 -0.000000 0.000000 1.000000 1.000000 1.000000
81 1 102.170853 121.953920 102.170853 121.953920 0.000000 0.000000 1.000000 1.000000 1.000000
82 1 206.011612 54.679200 206.011612 54.679200 0.000000 0.000000 1.000000 1.000000 1.000000
83 1 204.315468 34.531114 204.315468 34.531114 0.000000 0.000000 1.000000 1.000000 1.000000
84 1 215.842311 79.510426 215.842311 79.510426 -0.000000 0.000000 1.000000 1.000000 1.000000
85 1 211.326516 79.550034 211.326516 79.550034 -0.000000 -0.000000 1.000000 1.000000 1.000000
86 1 122.477005 221.749700 122.477005 221.749700 0.000000 -0.000000 1.000000 1.000000 1.000000
87 1 168.544289 128.930242 168.544289 128.930242 0.000000 0.000000 1.000000 1.000000 1.000000
88 1 29.050440 228.370522 29.050440 228.370522 -0.000000 0.000000 1.000000 1.000000 1.000000
89 1 258.342104 8.233857 258.342104 300.945003 -0.000000 0.000000 1.000000 1.000000 1.000000
90 1 82.829270 41.198738 82.829270 41.198738 -0.000000 -0.000000 1.000000 1.000000 1.000000
91 1 173.264021 145.252540 173.264021 145.252540 0.000000 0.000000 1.000000 1.000000 1.000000
92 1 188.934989 116.285362 188.934989 116.285362 -0.000000 -0.000000 1.000000 1.000000 1.000000
93 1 134.525607 196.738557 134.525607 196.738557 -0.000000 -0.000000 1.000000 1.000000 1.000000
94 1 194.590814 1.087632 194.590814 1.087632 0.000000 -0.000000 1.000000 1.000000 1.000000
95 1 239.307269 166.862062 239.307269 166.862062 0.000000 0.000000 1.000000 1.000000 1.000000
96 1 108.609109 264.192820 108.609109 264.192820 0.000000 -0.000000 1.000000 1.000000 1.000000
97 1 1.516993 160.033742 1.516993 160.033742 0.000000 0.000000 1.000000 1.000000 1.000000
98 1 234.151911 93.682191 234.151911 93.682191 -0.000000 -0.000000 1.000000 1.000000 1.000000
99 1 175.459025 80.928986 175.459025 80.928986 -0.000000 0.000000 1.000000 1.000000 1.000000
100 1 38.838965 146.262292 38.838965 146.262292 0.000000 -0.000000 1.000000 1.000000 1.000000
101 1 277.071827 168.939793 277.071827 168.939793 -0.000000 0.000000 1.000000 1.000000 1.000000
102 1 114.189001 52.885693 114.189001 52.885693 -0.000000 0.000000 1.000000 1.000000 1.000000
103 1 266.911750 111.221180 266.911750 111.221180 0.000000 -0.000000 1.000000 1.000000 1.000000
104 1 193.638550 81.588153 193.638550 81.588153 -0.000000 0.000000 1.000000 1.000000 1.000000
105 1 229.263745 160.168434 229.263745 160.168434 0.000000 -0.000000 1.000000 1.000000 1.000000
106 1 3.178927 124.311164 3.178927 124.311164 -0.000000 0.000000 1.000000 1.000000 1.000000
107 1 164.712886 7.621550 164.712886 7.621550 0.000000 0.000000 1.000000 1.000000 1.000000
108 1 245.286903 34.857226 245.286903 34.857226 -0.000000 0.000000 1.000000 1.000000 1.000000
109 1 250.487914 251.433421 250.487914 251.433421 0.000000 -0.000000 1.000000 1.000000 1.000000
110 1 12.917620 210.649371 12.917620 210.649371 -0.000000 -0.000000 1.000000 1.000000 1.000000
111 1 99.051972 68.989034 99.051972 68.989034 -0.000000 -0.000000 1.000000 1.000000 1.000000
112 1 33.931881 130.229277 33.931881 130.229277 0.000000 0.000000 1.000000 1.000000 1.000000
113 1 134.422951 178.159268 134.422951 178.159268 -0.000000 -0.000000 1.000000 1.000000 1.000000
114 1 64.506788 85.745267 64.506788 85.745267 -0.000000 -0.000000 1.000000 1.000000 1.000000
115 1 12.959868 277.942326 12.959868 277.942326 0.000000 0.000000 1.000000 1.000000 1.000000
116 1 111.482625 100.045372 111.482625 100.045372 0.000000 -0.000000 1.000000 1.000000 1.000000
117 1 14.749640 93.536823 14.749640 93.536823 0.000000 0.000000 1.000000 1.000000 1.000000
118 1 222.657964 242.121292 222.657964 242.121292 -0.000000 -0.000000 1.000000 1.000000 1.000000
119 1 237.478974 32.122978 237.478974 32.122978 0.000000 0.000000 1.000000 1.000000 1.000000
120 1 26.359085 155.550131 26.359085 155.550131 -0.000000 0.000000 1.000000 1.000000 1.000000
121 1 90.462117 205.548990 90.462117 205.548990 -0.000000 -0.000000 1.000000 1.000000 1.000000
122 1 252.714593 174.795275 252.714593 174.795275 0.000000 0.000000 1.000000 1.000000 1.000000
123 1 70.218918 143.894900 70.218918 143.894900 0.000000 0.000000 1.000000 1.000000 1.000000
124 1 153.973775 249.101186 153.973775 249.101186 0.000000 0.000000 1.000000 1.000000 1.000000
125 1 145.051256 80.275966 145.051256 80.275966 -0.000000 0.000000 1.000000 1.000000 1.000000
126 1 6.660163 269.313467 6.660163 269.313467 -0.000000 0.000000 1.000000 1.000000 1.000000
127 1 22.754492 84.458235 22.754492 84.458235 -0.000000 0.000000 1.000000 1.000000 1.000000
128 1 235.049243 66.869837 235.049243 66.869837 0.000000 0.000000 1.000000 1.000000 1.000000
129 1 131.026332 99.307406 131.026332 99.307406 0.000000 -0.000000 1.000000 1.000000 1.000000
130 1 10.209143 173.645602 10.209143 173.645602 0.000000 -0.000000 1.000000 1.000000 1.000000
131 1 4.692553 62.061826 4.692553 62.061826 -0.000000 -0.000000 1.000000 1.000000 1.000000
132 1 26.240431 120.869798 26.240431 120.869798 0.000000 -0.000000 1.000000 1.000000 1.000000
133 1 247.761192 181.775616 247.761192 181.775616 -0.000000 -0.000000 1.000000 1.000000 1.000000
134 1 177.988957 226.123399 177.988957 226.123399 0.000000 -0.000000 1.000000 1.000000 1.000000
135 1 175.509422 277.646430 175.509422 -15.064716 -0.000000 0.000000 1.000000 1.000000 1.000000
136 1 74.525157 246.272769 74.525157 246.272769 0.000000 -0.000000 1.000000 1.000000 1.000000
137 1 53.666821 170.556637 53.666821 170.556637 0.000000 -0.000000 1.000000 1.000000 1.000000
138 1 15.936899 110.446897 15.936899 110.446897 0.000000 0.000000 1.000000 1.000000 1.000000
139 1 267.499382 123.872300 267.499382 123.872300 0.000000 0.000000 1.000000 1.000000 1.000000
140 1 125.186880 236.829928 125.186880 236.829928 -0.000000 -0.000000 1.000000 1.000000 1.000000
141 1 31.170382 122.375869 31.170382 122.375869 -0.000000 0.000000 1.000000 1.000000 1.000000
142 1 197.653477 39.501167 197.653477 39.501167 -0.000000 -0.000000 1.000000 1.000000 1.000000
143 1 238.065026 143.706091 238.065026 143.706091 -0.000000 -0.000000 1.000000 1.000000 1.000000
144 1 20.332170 255.653504 20.332170 255.653504 -0.000000 -0.000000 1.000000 1.000000 1.000000
145 1 72.326673 103.950574 72.326673 103.950574 0.000000 -0.000000 1.000000 1.000000 1.000000
146 1 194.357151 133.709232 194.357151 133.709232 -0.000000 -0.000000 1.000000 1.000000 1.000000
147 1 286.730036 130.645742 -5.981110 130.645742 0.000000 -0.000000 1.000000 1.000000 1.000000
148 1 156.282283 194.255975 156.282283 194.255975 -0.000000 0.000000 1.000000 1.000000 1.000000
149 1 291.671476 89.358426 291.671476 89.358426 0.000000 0.000000 1.000000 1.000000 1.000000
150 1 263.962451 83.817865 263.962451 83.817865 0.000000 0.000000 1.000000 1.000000 1.000000
151 1 231.270946 228.186220 231.270946 228.186220 -0.000000 -0.000000 1.000000 1.000000 1.000000
152 1 72.536595 89.205471 72.536595 89.205471 -0.000000 0.000000 1.000000 1.000000 1.000000
153 1 117.500709 144.191135 117.500709 144.191135 0.000000 -0.000000 1.000000 1.000000 1.000000
154 1 209.342419 269.540428 209.342419 269.540428 0.000000 -0.000000 1.000000 1.000000 1.000000
155 1 23.385206 204.044031 23.385206 204.044031 0.000000 0.000000 1.000000 1.000000 1.000000
156 1 140.321683 117.573247 140.321683 117.573247 -0.000000 -0.000000 1.000000 1.000000 1.000000
157 1 102.372012 28.823959 102.372012 28.823959 0.000000 0.000000 1.000000 1.000000 1.000000
158 1 174.575525 280.901398 174.575525 280.901398 -0.000000 0.000000 1.000000 1.000000 1.000000
159 1 249.760012 63.406024 249.760012 63.406024 -0.000000 -0.000000 1.000000 1.000000 1.000000
160 1 84.776102 64.193682 84.776102 64.193682 0.000000 -0.000000 1.000000 1.000000 1.000000
161 1 129.907683 256.733651 129.907683 256.733651 0.000000 0.000000 1.000000 1.000000 1.000000
162 1 178.231658 238.873207 178.231658 238.873207 0.000000 -0.000000 1.000000 1.000000 1.000000
163 1 208.290090 62.900313 208.290090 62.900313 0.000000 -0.000000 1.000000 1.000000 1.000000
164 1 92.090773 129.687321 92.090773 129.687321 0.000000 0.000000 1.000000 1.000000 1.000000
165 1 177.209544 108.434168 177.209544 108.434168 0.000000 0.000000 1.000000 1.000000 1.000000
166 1 253.689769 185.030743 253.689769 185.030743 0.000000 -0.000000 1.000000 1.000000 1.000000
167 1 50.749398 153.180818 50.749398 153.180818 -0.000000 -0.000000 1.000000 1.000000 1.000000
168 1 106.042745 252.727362 106.042745 252.727362 0.000000 -0.000000 1.000000 1.000000 1.000000
169 1 213.562622 131.484491 213.562622 131.484491 -0.000000 -0.000000 1.000000 1.000000 1.000000
170 1 216.641086 16.434052 216.641086 16.434052 0.000000 0.000000 1.000000 1.000000 1.000000
171 1 265.808015 147.792427 265.808015 147.792427 -0.000000 0.000000 1.000000 1.000000 1.000000
172 1 265.898648 187.609452 265.898648 187.609452 0.000000 0.000000 1.000000 1.000000 1.000000
173 1 251.197807 151.645441 251.197807 151.645441 -0.000000 0.000000 1.000000 1.000000 1.000000
174 1 112.950334 106.946884 112.950334 106.946884 -0.000000 -0.000000 1.000000 1.000000 1.000000
175 1 185.489580 148.623157 185.489580 148.623157 -0.000000 -0.000000 1.000000 1.000000 1.000000
176 1 45.417715 210.707142 45.417715 210.707142 -0.000000 -0.000000 1.000000 1.000000 1.000000
177 1 290.581214 140.326199 -2.129932 140.326199 -0.000000 -0.000000 1.000000 1.000000 1.000000
178 1 80.198975 8.071046 80.198975 8.071046 0.000000 0.000000 1.000000 1.000000 1.000000
179 1 214.625604 26.916896 214.625604 26.916896 0.000000 0.000000 1.000000 1.000000 1.000000
180 1 205.622334 99.837100 205.622334 99.837100 -0.000000 -0.000000 1.000000 1.000000 1.000000
181 1 15.247826 65.537563 15.247826 65.537563 0.000000 -0.000000 1.000000 1.000000 1.000000
182 1 203.097745 37.068890 203.097745 37.068890 0.000000 -0.000000 1.000000 1.000000 1.000000
183 1 50.399453 237.713525 50.399453 237.713525 0.000000 0.000000 1.000000 1.000000 1.000000
184 1 88.306512 90.441234 88.306512 90.441234 0.000000 -0.000000 1.000000 1.000000 1.000000
185 1 54.562273 3.545838 54.562273 3.545838 0.000000 0.000000 1.000000 1.000000 1.000000
186 1 215.448394 291.126127 215.448394 -1.585019 0.000000 0.000000 1.000000 1.000000 1.000000
187 1 46.802576 190.816344 46.802576 190.816344 0.000000 0.000000 1.000000 1.000000 1.000000
188 1 252.570430 62.349936 252.570430 62.349936 0.000000 0.000000 1.000000 1.000000 1.000000
189 1 248.540121 218.111531 248.540121 218.111531 0.000000 -0.000000 1.000000 1.000000 1.000000
190 1 48.205262 272.881045 48.205262 272.881045 0.000000 -0.000000 1.000000 1.000000 1.000000
191 1 167.965706 156.540167 167.965706 156.540167 -0.000000 -0.000000 1.000000 1.000000 1.000000
192 1 100.710700 37.654382 100.710700 37.654382 0.000000 0.000000 1.000000 1.000000 1.000000
193 1 174.300751 162.017014 174.300751 162.017014 0.000000 -0.000000 1.000000 1.000000 1.000000
194 1 26.192252 230.539171 26.192252 230.539171 -0.000000 -0.000000 1.000000 1.000000 1.000000
195 1 109.986730 138.733947 109.986730 138.733947 -0.000000 -0.000000 1.000000 1.000000 1.000000
196 1 176.187057 260.176129 176.187057 260.176129 0.000000 0.000000 1.000000 1.000000 1.000000
197 1 67.792934 187.223013 67.792934 187.223013 0.000000 0.000000 1.000000 1.000000 1.000000
198 1 6.349974 166.698488 299.061120 166.698488 0.000000 0.000000 1.000000 1.000000 1.000000
199 1 86.334244 190.959998 86.334244 190.959998 0.000000 0.000000 1.000000 1.000000 1.000000
200 1 262.034125 66.840299 262.034125 66.840299 -0.000000 0.000000 1.000000 1.000000 1.000000
201 1 141.443931 107.359279 141.443931 107.359279 0.000000 -0.000000 1.000000 1.000000 1.000000
202 1 48.719024 206.790955 48.719024 206.790955 0.000000 -0.000000 1.000000 1.000000 1.000000
203 1 143.136603 254.921111 143.136603 254.921111 -0.000000 0.000000 1.000000 1.000000 1.000000
204 1 139.567212 203.890725 139.567212 203.890725 0.000000 0.000000 1.000000 1.000000 1.000000
205 1 221.008581 22.982012 221.008581 22.982012 -0.000000 -0.000000 1.000000 1.000000 1.000000
206 1 18.458903 239.023611 18.458903 239.023611 0.000000 -0.000000 1.000000 1.000000 1.000000
207 1 129.683099 11.965184 129.683099 11.965184 0.000000 -0.000000 1.000000 1.000000 1.000000
208 1 216.996896 121.050475 216.996896 121.050475 0.000000 0.000000 1.000000 1.000000 1.000000
209 1 180.395082 106.520830 180.395082 106.520830 -0.000000 0.000000 1.000000 1.000000 1.000000
210 1 57.238714 113.530555 57.238714 113.530555 0.000000 -0.000000 1.000000 1.000000 1.000000
211 1 269.191256 125.215291 269.191256 125.215291 0.000000 0.000000 1.000000 1.000000 1.000000
212 1 258.777854 179.481849 258.777854 179.481849 -0.000000 -0.000000 1.000000 1.000000 1.000000
213 1 249.658166 157.718437 249.658166 157.718437 0.000000 -0.000000 1.000000 1.000000 1.000000
214 1 272.975998 122.900849 272.975998 122.900849 -0.000000 0.000000 1.000000 1.000000 1.000000
215 1 291.311188 97.171316 291.311188 97.171316 -0.000000 0.000000 1.000000 1.000000 1.000000
216 1 81.646857 27.683800 81.646857 27.683800 -0.000000 -0.000000 1.000000 1.000000 1.000000
217 1 101.252637 218.306790 101.252637 218.306790 0.000000 0.000000 1.000000 1.000000 1.000000
218 1 253.440642 154.976505 253.440642 154.976505 0.000000 0.000000 1.000000 1.000000 1.000000
219 1 22.873644 170.145156 22.873644 170.145156 -0.000000 -0.000000 1.000000 1.000000 1.000000
220 1 225.812095 150.925279 225.812095 150.925279 0.000000 -0.000000 1.000000 1.000000 1.000000
221 1 3.644165 40.317357 296.355311 40.317357 -0.000000 -0.000000 1.000000 1.000000 1.000000
222 1 140.256572 4.020244 140.256572 296.731390 -0.000000 0.000000 1.000000 1.000000 1.000000
223 1 117.788556 204.085394 117.788556 204.085394 0.000000 0.000000 1.000000 1.000000 1.000000
224 1 58.343047 115.327736 58.343047 115.327736 -0.000000 0.000000 1.000000 1.000000 1.000000
225 1 281.303961 31.921559 281.303961 31.921559 -0.000000 -0.000000 1.000000 1.000000 1.000000
226 1 262.082180 0.151982 262.082180 292.863128 0.000000 -0.000000 1.000000 1.000000 1.000000
227 1 151.841545 99.799225 151.841545 99.799225 -0.000000 0.000000 1.000000 1.000000 1.000000
228 1 204.288795 116.148485 204.288795 116.148485 0.000000 0.000000 1.000000 1.000000 1.000000
229 1 105.346315 172.911739 105.346315 172.911739 0.000000 0.000000 1.000000 1.000000 1.000000
230 1 251.697351 76.530580 251.697351 76.530580 0.000000 -0.000000 1.000000 1.000000 1.000000
231 1 102.321965 45.187127 102.321965 45.187127 -0.000000 -0.000000 1.000000 1.000000 1.000000
232 1 259.460187 274.732047 259.460187 274.732047 0.000000 0.000000 1.000000 1.000000 1.000000
233 1 237.776199 21.217724 237.776199 21.217724 -0.000000 -0.000000 1.000000 1.000000 1.000000
234 1 33.517096 50.618564 33.517096 50.618564 0.000000 -0.000000 1.000000 1.000000 1.000000
235 1 83.463482 288.277704 83.463482 288.277704 0.000000 -0.000000 1.000000 1.000000 1.000000
236 1 141.888588 95.061890 141.888588 95.061890 0.000000 -0.000000 1.000000 1.000000 1.000000
237 1 83.401268 147.620170 83.401268 147.620170 -0.000000 0.000000 1.000000 1.000000 1.000000
238 1 123.825769 89.813104 123.825769 89.813104 0.000000 -0.000000 1.000000 1.000000 1.000000
239 1 53.739238 225.419670 53.739238 225.419670 0.000000 -0.000000 1.000000 1.000000 1.000000
240 1 245.340097 59.218193 245.340097 59.218193 -0.000000 0.000000 1.000000 1.000000 1.000000
241 1 159.928212 282.571209 159.928212 282.571209 0.000000 0.000000 1.000000 1.000000 1.000000
242 1 110.965098 47.207443 110.965098 47.207443 0.000000 -0.000000 1.000000 1.000000 1.000000
243 1 25.452504 57.210430 25.452504 57.210430 0.000000 -0.000000 1.000000 1.000000 1.000000
244 1 189.571520 265.272336 189.571520 265.272336 0.000000 -0.000000 1.000000 1.000000 1.000000
245 1 174.551299 177.634887 174.551299 177.634887 -0.000000 -0.000000 1.000000 1.000000 1.000000
246 1 69.535088 93.864452 69.535088 93.864452 0.000000 0.000000 1.000000 1.000000 1.000000
247 1 89.608368 9.616972 89.608368 9.616972 0.000000 0.000000 1.000000 1.000000 1.000000
248 1 10.143305 75.743186 10.143305 75.743186 0.000000 0.000000 1.000000 1.000000 1.000000
249 1 282.060953 26.981994 282.060953 26.981994 0.000000 0.000000 1.000000 1.000000 1.000000
250 1 226.839916 238.401570 226.839916 238.401570 -0.000000 0.000000 1.000000 1.000000 1.000000
251 1 187.884238 151.590537 187.884238 151.590537 0.000000 0.000000 1.000000 1.000000 1.000000
252 1 197.928585 283.760055 197.928585 283.760055 0.000000 -0.000000 1.000000 1.000000 1.000000
253 1 21.647827 49.513766 21.647827 49.513766 -0.000000 0.000000 1.000000 1.000000 1.000000
254 1 279.588047 223.676157 279.588047 223.676157 -0.000000 0.000000 1.000000 1.000000 1.000000
255 1 221.774547 151.560432 221.774547 151.560432 0.000000 0.000000 1.000000 1.000000 1.000000
256 1 267.995369 16.042837 267.995369 308.753983 0.000000 0.000000 1.000000 1.000000 1.000000
257 1 192.674469 205.097068 192.674469 205.097068 -0.000000 0.000000 1.000000 1.000000 1.000000
258 1 179.174355 209.888986 179.174355 209.888986 -0.000000 0.000000 1.000000 1.000000 1.000000
259 1 137.927131 224.228229 137.927131 224.228229 0.000000 -0.000000 1.000000 1.000000 1.000000
260 1 255.068405 137.968295 255.068405 137.968295 0.000000 -0.000000 1.000000 1.000000 1.000000
261 1 67.396671 42.270012 67.396671 42.270012 0.000000 0.000000 1.000000 1.000000 1.000000
262 1 182.110110 189.278558 182.110110 189.278558 -0.000000 -0.000000 1.000000 1.000000 1.000000
263 1 44.240511 132.113995 44.240511 132.113995 0.000000 -0.000000 1.000000 1.000000 1.000000
264 1 81.620923 52.075125 81.620923 52.075125 0.000000 -0.000000 1.000000 1.000000 1.000000
265 1 275.078557 275.703445 275.078557 275.703445 0.000000 -0.000000 1.000000 1.000000 1.000000
266 1 220.535981 77.890640 220.535981 77.890640 -0.000000 0.000000 1.000000 1.000000 1.000000
267 1 27.568150 68.481638 27.568150 68.481638 -0.000000 0.000000 1.000000 1.000000 1.000000
268 1 223.971614 99.264859 223.971614 99.264859 0.000000 -0.000000 1.000000 1.000000 1.000000
269 1 248.363395 16.897737 248.363395 16.897737 0.000000 0.000000 1.000000 1.000000 1.000000
270 1 277.489264 5.998055 277.489264 5.998055 0.000000 -0.000000 1.000000 1.000000 1.000000
271 1 252.161212 29.552407 252.161212 29.552407 0.000000 -0.000000 1.000000 1.000000 1.000000
272 1 209.748142 144.613077 209.748142 144.613077 0.000000 -0.000000 1.000000 1.000000 1.000000
273 1 266.959421 284.033843 266.959421 -8.677303 -0.000000 0.000000 1.000000 1.000000 1.000000
274 1 138.036336 208.654361 138.036336 208.654361 0.000000 -0.000000 1.000000 1.000000 1.000000
275 1 178.377030 31.075980 178.377030 31.075980 -0.000000 0.000000 1.000000 1.000000 1.000000
276 1 233.586695 214.861473 233.586695 214.861473 0.000000 0.000000 1.000000 1.000000 1.000000
277 1 4.898743 86.172753 4.898743 86.172753 -0.000000 -0.000000 1.000000 1.000000 1.000000
278 1 67.256924 200.437394 67.256924 200.437394 0.000000 0.000000 1.000000 1.000000 1.000000
279 1 186.631306 245.163134 186.631306 245.163134 0.000000 0.000000 1.000000 1.000000 1.000000
280 1 50.051649 62.005309 50.051649 62.005309 0.000000 -0.000000 1.000000 1.000000 1.000000
281 1 135.040953 209.492313 135.040953 209.492313 -0.000000 0.000000 1.000000 1.000000 1.000000
282 1 37.250475 34.920606 37.250475 34.920606 -0.000000 -0.000000 1.000000 1.000000 1.000000
283 1 16.596697 257.473692 16.596697 257.473692 0.000000 -0.000000 1.000000 1.000000 1.000000
284 1 272.471779 140.450141 272.471779 140.450141 -0.000000 0.000000 1.000000 1.000000 1.000000
285 1 183.556068 256.679069 183.556068 256.679069 0.000000 0.000000 1.000000 1.000000 1.000000
286 1 124.063927 131.203358 124.063927 131.203358 -0.000000 -0.000000 1.000000 1.000000 1.000000
287 1 179.448627 194.966131 179.448627 194.966131 -0.000000 0.000000 1.000000 1.000000 1.000000
288 1 57.681924 2.153554 57.681924 2.153554 0.000000 -0.000000 1.000000 1.000000 1.000000
289 1 124.033457 232.617330 124.033457 232.617330 0.000000 0.000000 1.000000 1.000000 1.000000
290 1 62.637539 197.851131 62.637539 197.851131 -0.000000 0.000000 1.000000 1.000000 1.000000
291 1 229.340475 2.677946 229.340475 295.389092 -0.000000 -0.000000 1.000000 1.000000 1.000000
292 1 125.403499 139.704235 125.403499 139.704235 0.000000 -0.000000 1.000000 1.000000 1.000000
293 1 65.672154 269.073418 65.672154 269.073418 0.000000 -0.000000 1.000000 1.000000 1.000000
294 1 189.505749 101.241715 189.505749 101.241715 0.000000 -0.000000 1.000000 1.000000 1.000000
295 1 172.545016 197.587316 172.545016 197.587316 0.000000 0.000000 1.000000 1.000000 1.000000
296 1 10.731845 222.425257 303.442991 222.425257 -0.000000 -0.000000 1.000000 1.000000 1.000000
297 1 197.649247 72.072060 197.649247 72.072060 -0.000001 0.000000 1.000000 1.000000 1.000000
298 1 14.699538 234.530291 14.699538 234.530291 -0.000000 -0.000000 1.000000 1.000000 1.000000
299 1 85.949369 226.500894 85.949369 226.500894 0.000000 0.000000 1.000000 1.000000 1.000000
300 1 148.979643 248.317012 148.979643 248.317012 -0.000000 -0.000000 1.000000 1.000000 1.000000
301 1 90.962462 155.553863 90.962462 155.553863 0.000000 0.000000 1.000000 1.000000 1.000000
302 1 114.718546 280.424717 114.718546 280.424717 -0.000000 0.000000 1.000000 1.000000 1.000000
303 1 129.729334 32.566139 129.729334 32.566139 0.000000 -0.000000 1.000000 1.000000 1.000000
304 1 274.358618 48.961598 274.358618 48.961598 0.000000 0.000000 1.000000 1.000000 1.000000
305 1 107.966356 282.952012 107.966356 282.952012 -0.000000 -0.000000 1.000000 1.000000 1.000000
306 1 164.803131 132.013735 164.803131 132.013735 -0.000000 -0.000000 1.000000 1.000000 1.000000
307 1 261.437651 262.636061 261.437651 262.636061 0.000000 0.000000 1.000000 1.000000 1.000000
308 1 218.082396 292.023796 218.082396 292.023796 -0.000000 -0.000000 1.000000 1.000000 1.000000
309 1 278.033956 28.207157 -14.677190 28.207157 -0.000000 0.000000 1.000000 1.000000 1.000000
310 1 149.010577 69.091718 149.010577 69.091718 -0.000000 -0.000000 1.000000 1.000000 1.000000
311 1 224.597505 16.529316 224.597505 309.240462 -0.000000 0.000000 1.000000 1.000000 1.000000
312 1 39.114749 195.912853 39.114749 195.912853 0.000000 0.000000 1.000000 1.000000 1.000000
313 1 222.872476 260.339253 222.872476 260.339253 0.000000 -0.000000 1.000000 1.000000 1.000000
314 1 61.027373 56.573619 61.027373 56.573619 0.000000 -0.000000 1.000000 1.000000 1.000000
315 1 95.759151 31.120037 95.759151 31.120037 -0.000000 -0.000000 1.000000 1.000000 1.000000