ITEM: TIMESTEP
1200.000000
ITEM: NUMBER OF ATOMS
5000
ITEM: BOX BOUNDS xy xz yz
0 292.711146 0
0 292.711146 0
0 2 0
ITEM: ATOMS id type x y xu yu vx vy radius m z
0 1 54.297944 266.561337 54.297944 266.561337 0.000000 -0.000000 1.000000 1.000000 1.000000
1 1 55.060582 146.626481 55.060582 146.626481 -0.000000 -0.000000 1.000000 1.000000 1.000000
2 1 41.921713 230.615494 41.921713 230.615494 0.000000 -0.000000 1.000000 1.000000 1.000000
3 1 207.557572 38.089709 207.557572 38.089709 -0.000000 -0.000000 1.000000 1.000000 1.000000
4 1 82.651388 20.419403 82.651388 20.419403 -0.000000 0.000000 1.000000 1.000000 1.000000
5 1 145.336886 224.714958 145.336886 224.714958 0.000000 0.000000 1.000000 1.000000 1.000000
6 1 206.209125 5.417969 206.209125 298.129115 -0.000000 -0.000000 1.000000 1.000000 1.000000
7 1 166.297482 171.457574 166.297482 171.457574 0.000000 -0.000000 1.000000 1.000000 1.000000
8 1 271.730711 124.103484 271.730711 124.103484 0.000000 0.000000 1.000000 1.000000 1.000000
9 1 229.297898 164.349675 229.297898 164.349675 -0.000000 0.000000 1.000000 1.000000 1.000000
10 1 146.108769 284.726014 146.108769 284.726014 -0.000000 -0.000001 1.000000 1.000000 1.000000
11 1 188.923882 247.706047 188.923882 247.706047 0.000000 0.000000 1.000000 1.000000 1.000000
12 1 146.840540 288.328471 146.840540 288.328471 0.000000 0.000000 1.000000 1.000000 1.000000
13 1 48.663000 68.478930 48.663000 68.478930 -0.000000 -0.000000 1.000000 1.000000 1.000000
14 1 184.189174 58.466001 184.189174 58.466001 -0.000000 -0.000000 1.000000 1.000000 1.000000
15 1 176.325426 71.696269 176.325426 71.696269 0.000000 0.000000 1.000000 1.000000 1.000000
16 1 83.632456 264.344717 83.632456 264.344717 -0.000000 -0.000000 1.000000 1.000000 1.000000
17 1 238.129276 119.224466 238.129276 119.224466 0.000000 -0.000000 1.000000 1.000000 1.000000
18 1 178.293272 269.137593 178.293272 269.137593 0.000000 -0.000000 1.000000 1.000000 1.000000
19 1 139.708454 185.487659 139.708454 185.487659 0.000000 0.000000 1.000000 1.000000 1.000000
20 1 168.083588 167.407287 168.083588 167.407287 -0.000000 -0.000000 1.000000 1.000000 1.000000
21 1 189.192172 75.446798 189.192172 75.446798 0.000000 0.000000 1.000000 1.000000 1.000000
22 1 206.023280 89.342550 206.023280 89.342550 0.000000 -0.000000 1.000000 1.000000 1.000000
23 1 197.395684 241.561741 197.395684 241.561741 -0.000000 -0.000000 1.000000 1.000000 1.000000
24 1 166.540749 75.503936 166.540749 75.503936 -0.000000 0.000000 1.000000 1.000000 1.000000
25 1 30.701368 230.735011 30.701368 230.735011 0.000000 0.000000 1.000000 1.000000 1.000000
26 1 132.346407 285.951185 132.346407 285.951185 -0.000000 0.000000 1.000000 1.000000 1.000000
27 1 62.874020 142.702676 62.874020 142.702676 -0.000000 -0.000000 1.000000 1.000000 1.000000
28 1 65.063442 172.953741 65.063442 172.953741 -0.000000 -0.000000 1.000000 1.000000 1.000000
29 1 16.511570 39.667323 309.222716 39.667323 -0.000000 -0.000000 1.000000 1.000000 1.000000
30 1 236.868094 262.375783 236.868094 262.375783 0.000000 0.000000 1.000000 1.000000 1.000000
31 1 179.922754 208.688440 179.922754 208.688440 -0.000000 0.000000 1.000000 1.000000 1.000000
32 1 203.710283 29.935081 203.710283 29.935081 0.000000 0.000000 1.000000 1.000000 1.000000
33 1 76.900669 260.507587 76.900669 260.507587 -0.000000 0.000000 1.000000 1.000000 1.000000
34 1 286.469070 176.169834 -6.242076 176.169834 -0.000000 0.000000 1.000000 1.000000 1.000000
35 1 178.664364 179.969886 178.664364 179.969886 -0.000000 -0.000000 1.000000 1.000000 1.000000
36 1 17.365381 197.909771 17.365381 197.909771 0.000000 -0.000000 1.000000 1.000000 1.000000
37 1 279.793386 100.250402 279.793386 100.250402 0.000000 0.000000 1.000000 1.000000 1.000000
38 1 34.629012 220.012456 34.629012 220.012456 -0.000000 0.000000 1.000000 1.000000 1.000000
39 1 132.505350 44.520263 132.505350 44.520263 0.000000 -0.000000 1.000000 1.000000 1.000000
40 1 56.865258 254.919674 56.865258 254.919674 0.000000 0.000000 1.000000 1.000000 1.000000
41 1 292.042699 191.051492 -0.668447 191.051492 -0.000000 0.000000 1.000000 1.000000 1.000000
42 1 6.186154 70.604174 6.186154 70.604174 0.000000 0.000000 1.000000 1.000000 1.000000
43 1 208.514640 132.520927 208.514640 132.520927 0.000000 -0.000000 1.000000 1.000000 1.000000
44 1 127.603012 27.073632 127.603012 27.073632 -0.000000 -0.000000 1.000000 1.000000 1.000000
45 1 187.188393 13.234231 187.188393 13.234231 0.000000 0.000000 1.000000 1.000000 1.000000
46 1 287.197839 94.255786 287.197839 94.255786 0.000000 -0.000000 1.000000 1.000000 1.000000
47 1 27.626406 257.055739 27.626406 257.055739 0.000000 0.000000 1.000000 1.000000 1.000000
48 1 275.285094 170.995773 275.285094 170.995773 0.000000 -0.000000 1.000000 1.000000 1.000000
49 1 241.640186 114.618642 241.640186 114.618642 0.000000 0.000000 1.000000 1.000000 1.000000
50 1 51.822348 90.078783 51.822348 90.078783 -0.000000 0.000000 1.000000 1.000000 1.000000
51 1 284.148809 229.506021 284.148809 229.506021 -0.000000 -0.000000 1.000000 1.000000 1.000000
52 1 87.849083 85.699789 87.849083 85.699789 -0.000000 -0.000000 1.000000 1.000000 1.000000
53 1 133.453554 190.997869 133.453554 190.997869 0.000000 0.000000 1.000000 1.000000 1.000000
54 1 196.097739 5.592908 196.097739 5.592908 0.000000 -0.000000 1.000000 1.000000 1.000000
55 1 167.878940 291.876636 167.878940 -0.834510 0.000000 -0.000000 1.000000 1.000000 1.000000
56 1 99.791435 88.745952 99.791435 88.745952 0.000000 -0.000000 1.000000 1.000000 1.000000
57 1 144.736512 71.937836 144.736512 71.937836 0.000000 0.000000 1.000000 1.000000 1.000000
58 1 6.699767 194.461190 299.410913 194.461190 0.000000 -0.000000 1.000000 1.000000 1.000000
59 1 8.600922 132.554565 301.312068 132.554565 0.000000 -0.000000 1.000000 1.000000 1.000000
60 1 72.782013 243.941671 72.782013 243.941671 0.000000 -0.000000 1.000000 1.000000 1.000000
61 1 267.073094 30.501761 267.073094 30.501761 -0.000000 0.000000 1.000000 1.000000 1.000000
62 1 252.867320 59.160937 252.867320 59.160937 0.000000 0.000000 1.000000 1.000000 1.000000
63 1 186.167554 231.224308 186.167554 231.224308 -0.000000 0.000000 1.000000 1.000000 1.000000
64 1 138.873517 240.417517 138.873517 240.417517 0.000000 0.000000 1.000000 1.000000 1.000000
65 1 168.354496 89.071262 168.354496 89.071262 0.000000 0.000000 1.000000 1.000000 1.000000
66 1 93.361358 186.127683 93.361358 186.127683 0.000000 -0.000000 1.000000 1.000000 1.000000
67 1 6.411759 203.220327 6.411759 203.220327 0.000000 -0.000000 1.000000 1.000000 1.000000
68 1 126.247032 47.203728 126.247032 47.203728 0.000000 -0.000000 1.000000 1.000000 1.000000
69 1 96.852937 133.689536 96.852937 133.689536 -0.000000 0.000000 1.000000 1.000000 1.000000
70 1 182.159629 104.764400 182.159629 104.764400 0.000000 -0.000000 1.000000 1.000000 1.000000
71 1 135.983640 290.782496 135.983640 290.782496 0.000000 0.000000 1.000000 1.000000 1.000000
72 1 290.832523 104.599387 290.832523 104.599387 -0.000000 0.000000 1.000000 1.000000 1.000000
73 1 17.747159 18.998815 17.747159 311.709961 -0.000000 0.000000 1.000000 1.000000 1.000000
74 1 128.495374 211.382765 128.495374 211.382765 -0.000000 0.000000 1.000000 1.000000 1.000000
75 1 8.636309 263.376807 8.636309 263.376807 -0.000000 0.000000 1.000000 1.000000 1.000000
76 1 193.286491 18.540584 193.286491 18.540584 0.000000 -0.000000 1.000000 1.000000 1.000000
77 1 22.469144 219.143282 315.180290 219.143282 -0.000000 0.000000 1.000000 1.000000 1.000000
78 1 142.653270 34.409360 142.653270 34.409360 0.000000 -0.000000 1.000000 1.000000 1.000000
79 1 101.702439 44.078751 101.702439 44.078751 0.000000 0.000000 1.000000 1.000000 1.000000
80 1 121.624346 155.606921 121.624346 155.606921 0.000000 0.000000 1.000000 1.000000 1.000000
81 1 95.805499 118.123163 95.805499 118.123163 -0.000000 -0.000000 1.000000 1.000000 1.000000
82 1 208.680266 64.533540 208.680266 64.533540 0.000000 0.000000 1.000000 1.000000 1.000000
83 1 222.255307 15.276192 222.255307 15.276192 -0.000002 0.000000 1.000000 1.000000 1.000000
84 1 230.248723 77.986055 230.248723 77.986055 0.000000 0.000000 1.000000 1.000000 1.000000
85 1 230.750814 97.479946 230.750814 97.479946 0.000000 0.000000 1.000000 1.000000 1.000000
86 1 134.807357 220.019670 134.807357 220.019670 -0.000000 -0.000000 1.000000 1.000000 1.000000
87 1 170.961546 134.644648 170.961546 134.644648 0.000000 -0.000000 1.000000 1.000000 1.000000
88 1 40.065729 245.461697 40.065729 245.461697 -0.000000 0.000000 1.000000 1.000000 1.000000
89 1 260.709626 11.572762 260.709626 304.283908 0.000000 -0.000000 1.000000 1.000000 1.000000
90 1 89.786496 34.465482 89.786496 34.465482 -0.000000 -0.000000 1.000000 1.000000 1.000000
91 1 177.361848 151.917480 177.361848 151.917480 -0.000000 0.000000 1.000000 1.000000 1.000000
92 1 181.470264 91.056856 181.470264 91.056856 -0.000000 0.000000 1.000000 1.000000 1.000000
93 1 145.166173 187.652830 145.166173 187.652830 -0.000000 0.000000 1.000000 1.000000 1.000000
94 1 179.584859 6.023058 179.584859 6.023058 0.000000 -0.000000 1.000000 1.000000 1.000000
95 1 254.421172 167.078387 254.421172 167.078387 0.000000 -0.000000 1.000000 1.000000 1.000000
96 1 100.667871 260.892181 100.667871 260.892181 -0.000000 -0.000000 1.000000 1.000000 1.000000
97 1 291.010949 166.735115 -1.700197 166.735115 -0.000000 -0.000000 1.000000 1.000000 1.000000
98 1 232.592769 79.975527 232.592769 79.975527 0.000000 -0.000000 1.000000 1.000000 1.000000
99 1 196.521399 73.080182 196.521399 73.080182 0.000000 0.000000 1.000000 1.000000 1.000000
100 1 21.138577 153.891533 21.138577 153.891533 -0.000000 0.000000 1.000000 1.000000 1.000000
101 1 271.958942 166.812415 271.958942 166.812415 -0.000000 0.000000 1.000000 1.000000 1.000000
102 1 109.488449 63.481900 109.488449 63.481900 0.000000 0.000000 1.000000 1.000000 1.000000
103 1 284.088583 106.533409 284.088583 106.533409 0.000000 0.000000 1.000000 1.000000 1.000000
104 1 189.773427 102.972332 189.773427 102.972332 0.000000 0.000000 1.000000 1.000000 1.000000
105 1 211.088619 171.086938 211.088619 171.086938 -0.000000 0.000000 1.000000 1.000000 1.000000
106 1 16.113139 130.747784 16.113139 130.747784 -0.000000 -0.000000 1.000000 1.000000 1.000000
107 1 160.333341 6.323065 160.333341 6.323065 0.000000 0.000000 1.000000 1.000000 1.000000
108 1 248.837297 43.510279 248.837297 43.510279 0.000000 -0.000000 1.000000 1.000000 1.000000
109 1 245.968499 231.841014 245.968499 231.841014 0.000000 -0.000000 1.000000 1.000000 1.000000
110 1 17.887307 195.663584 17.887307 195.663584 0.000000 -0.000000 1.000000 1.000000 1.000000
111 1 92.579852 88.515241 92.579852 88.515241 -0.000000 -0.000000 1.000000 1.000000 1.000000
112 1 22.135016 152.149142 22.135016 152.149142 0.000000 -0.000000 1.000000 1.000000 1.000000
113 1 140.996199 178.804171 140.996199 178.804171 0.000000 0.000000 1.000000 1.000000 1.000000
114 1 68.105942 108.528398 68.105942 108.528398 0.000000 0.000000 1.000000 1.000000 1.000000
115 1 287.621886 275.458506 -5.089260 275.458506 -0.000000 -0.000000 1.000000 1.000000 1.000000
116 1 100.337720 101.365435 100.337720 101.365435 -0.000000 0.000000 1.000000 1.000000 1.000000
117 1 21.314835 95.245123 21.314835 95.245123 0.000000 0.000000 1.000000 1.000000 1.000000
118 1 209.803898 228.405450 209.803898 228.405450 0.000000 0.000000 1.000000 1.000000 1.000000
119 1 236.799901 10.563072 236.799901 10.563072 -0.000000 0.000000 1.000000 1.000000 1.000000
120 1 18.136611 140.960170 18.136611 140.960170 0.000000 -0.000000 1.000000 1.000000 1.000000
121 1 70.505507 221.437975 70.505507 221.437975 0.000000 -0.000000 1.000000 1.000000 1.000000
122 1 240.867426 169.304638 240.867426 169.304638 -0.000000 0.000000 1.000000 1.000000 1.000000
123 1 66.051275 131.912946 66.051275 131.912946 0.000000 -0.000000 1.000000 1.000000 1.000000
124 1 154.951592 252.289396 154.951592 252.289396 -0.000000 -0.000000 1.000000 1.000000 1.000000
125 1 133.514262 66.313721 133.514262 66.313721 -0.000000 0.000000 1.000000 1.000000 1.000000
126 1 2.561841 264.801461 2.561841 264.801461 -0.000000 0.000000 1.000000 1.000000 1.000000
127 1 37.509977 68.229763 37.509977 68.229763 -0.000000 -0.000000 1.000000 1.000000 1.000000
128 1 248.982971 56.704957 248.982971 56.704957 0.000000 -0.000000 1.000000 1.000000 1.000000
129 1 127.158441 82.496507 127.158441 82.496507 0.000000 -0.000000 1.000000 1.000000 1.000000
130 1 22.266888 190.139870 22.266888 190.139870 0.000000 0.000000 1.000000 1.000000 1.000000
131 1 291.913170 59.233770 -0.797976 59.233770 -0.000000 -0.000000 1.000000 1.000000 1.000000
132 1 10.130598 113.047228 10.130598 113.047228 -0.000000 -0.000000 1.000000 1.000000 1.000000
133 1 258.782210 187.364891 258.782210 187.364891 0.000000 0.000000 1.000000 1.000000 1.000000
134 1 186.220600 234.738271 186.220600 234.738271 -0.000000 -0.000000 1.000000 1.000000 1.000000
135 1 176.863560 288.604617 176.863560 -4.106529 0.000000 -0.000000 1.000000 1.000000 1.000000
136 1 69.683688 247.837632 69.683688 247.837632 -0.000000 -0.000000 1.000000 1.000000 1.000000
137 1 47.116734 166.597943 47.116734 166.597943 -0.000000 0.000000 1.000000 1.000000 1.000000
138 1 30.310792 91.087454 30.310792 91.087454 -0.000000 0.000000 1.000000 1.000000 1.000000
139 1 275.460309 110.817983 275.460309 110.817983 0.000000 -0.000000 1.000000 1.000000 1.000000
140 1 139.205905 242.525521 139.205905 242.525521 0.000000 -0.000000 1.000000 1.000000 1.000000
141 1 37.535163 92.828676 37.535163 92.828676 -0.000000 -0.000000 1.000000 1.000000 1.000000
142 1 174.671601 26.382058 174.671601 26.382058 0.000000 -0.000000 1.000000 1.000000 1.000000
143 1 229.964578 151.583579 229.964578 151.583579 -0.000000 0.000000 1.000000 1.000000 1.000000
144 1 25.103155 276.657910 25.103155 276.657910 -0.000000 0.000000 1.000000 1.000000 1.000000
145 1 62.412466 97.735518 62.412466 97.735518 0.000000 0.000000 1.000000 1.000000 1.000000
146 1 180.382910 139.018578 180.382910 139.018578 0.000000 0.000000 1.000000 1.000000 1.000000
147 1 15.408894 115.017126 15.408894 115.017126 -0.000000 0.000000 1.000000 1.000000 1.000000
148 1 182.605016 187.427835 182.605016 187.427835 0.000000 0.000000 1.000000 1.000000 1.000000
149 1 8.903927 99.024052 301.615073 99.024052 0.000000 0.000000 1.000000 1.000000 1.000000
150 1 251.080583 72.761769 251.080583 72.761769 -0.000000 0.000000 1.000000 1.000000 1.000000
151 1 233.294284 248.400795 233.294284 248.400795 0.000000 0.000000 1.000000 1.000000 1.000000
152 1 54.168409 86.921895 54.168409 86.921895 -0.000000 0.000000 1.000000 1.000000 1.000000
153 1 123.900585 150.482768 123.900585 150.482768 0.000000 0.000000 1.000000 1.000000 1.000000
154 1 207.930993 271.581160 207.930993 271.581160 -0.000000 0.000000 1.000000 1.000000 1.000000
155 1 17.764380 193.142853 17.764380 193.142853 -0.000000 0.000000 1.000000 1.000000 1.000000
156 1 144.857329 117.479934 144.857329 117.479934 -0.000000 0.000000 1.000000 1.000000 1.000000
157 1 95.722846 13.294914 95.722846 13.294914 -0.000000 -0.000000 1.000000 1.000000 1.000000
158 1 166.037460 279.709105 166.037460 279.709105 0.000000 -0.000000 1.000000 1.000000 1.000000
159 1 250.893585 60.647220 250.893585 60.647220 0.000000 -0.000000 1.000000 1.000000 1.000000
160 1 96.945213 55.880716 96.945213 55.880716 0.000000 0.000000 1.000000 1.000000 1.000000
161 1 118.033489 233.005918 118.033489 233.005918 0.000000 0.000000 1.000000 1.000000 1.000000
162 1 180.793928 237.977584 180.793928 237.977584 0.000000 -0.000000 1.000000 1.000000 1.000000
163 1 199.722108 49.438951 199.722108 49.438951 -0.000000 -0.000000 1.000000 1.000000 1.000000
164 1 103.700840 119.323825 103.700840 119.323825 -0.000000 0.000000 1.000000 1.000000 1.000000
165 1 178.708146 101.183811 178.708146 101.183811 0.000000 -0.000000 1.000000 1.000000 1.000000
166 1 261.849330 177.616329 261.849330 177.616329 -0.000000 0.000000 1.000000 1.000000 1.000000
167 1 52.970957 166.410661 52.970957 166.410661 -0.000000 -0.000000 1.000000 1.000000 1.000000
168 1 109.877444 242.006163 109.877444 242.006163 0.000000 -0.000000 1.000000 1.000000 1.000000
169 1 196.278013 132.682361 196.278013 132.682361 -0.000000 0.000000 1.000000 1.000000 1.000000
170 1 215.341849 39.085626 215.341849 39.085626 0.000000 0.000000 1.000000 1.000000 1.000000
171 1 278.387073 146.860347 278.387073 146.860347 -0.000000 0.000000 1.000000 1.000000 1.000000
172 1 267.497327 182.949890 267.497327 182.949890 -0.000000 -0.000000 1.000000 1.000000 1.000000
173 1 244.439145 130.848440 244.439145 130.848440 0.000000 -0.000000 1.000000 1.000000 1.000000
174 1 116.447788 104.272982 116.447788 104.272982 0.000000 -0.000000 1.000000 1.000000 1.000000
175 1 175.987144 153.881091 175.987144 153.881091 -0.000000 0.000000 1.000000 1.000000 1.000000
176 1 49.638937 222.095725 49.638937 222.095725 0.000000 -0.000000 1.000000 1.000000 1.000000
177 1 288.990329 141.059095 -3.720817 141.059095 0.000000 -0.000000 1.000000 1.000000 1.000000
178 1 75.417229 5.293244 75.417229 5.293244 -0.000000 0.000000 1.000000 1.000000 1.000000
179 1 202.963310 22.609602 202.963310 22.609602 -0.000000 -0.000000 1.000000 1.000000 1.000000
180 1 200.686247 94.012732 200.686247 94.012732 0.000000 -0.000000 1.000000 1.000000 1.000000
181 1 17.873795 62.306494 17.873795 62.306494 -0.000000 0.000000 1.000000 1.000000 1.000000
182 1 183.825642 45.853610 183.825642 45.853610 0.000000 -0.000000 1.000000 1.000000 1.000000
183 1 39.613216 257.281123 39.613216 257.281123 -0.000000 0.000000 1.000000 1.000000 1.000000
184 1 84.954339 95.647662 84.954339 95.647662 -0.000000 -0.000000 1.000000 1.000000 1.000000
185 1 47.687628 19.985275 47.687628 19.985275 -0.000000 0.000000 1.000000 1.000000 1.000000
186 1 223.055176 286.900130 223.055176 -5.811016 0.000000 -0.000000 1.000000 1.000000 1.000000
187 1 43.926089 177.219063 43.926089 177.219063 0.000000 0.000000 1.000000 1.000000 1.000000
188 1 247.283757 52.152341 247.283757 52.152341 0.000000 0.000000 1.000000 1.000000 1.000000
189 1 235.729030 232.223230 235.729030 232.223230 0.000000 0.000000 1.000000 1.000000 1.000000
190 1 62.904585 263.376071 62.904585 263.376071 0.000000 -0.000000 1.000000 1.000000 1.000000
191 1 151.305336 155.211454 151.305336 155.211454 -0.000000 -0.000000 1.000000 1.000000 1.000000
192 1 105.763771 40.322094 105.763771 40.322094 -0.000000 0.000000 1.000000 1.000000 1.000000
193 1 148.431279 164.012223 148.431279 164.012223 -0.000000 -0.000000 1.000000 1.000000 1.000000
194 1 32.024181 251.895517 32.024181 251.895517 0.000000 0.000000 1.000000 1.000000 1.000000
195 1 116.121886 119.049855 116.121886 119.049855 0.000000 -0.000000 1.000000 1.000000 1.000000
196 1 170.191793 264.175422 170.191793 264.175422 0.000000 0.000000 1.000000 1.000000 1.000000
197 1 56.625897 174.083123 56.625897 174.083123 0.000000 -0.000000 1.000000 1.000000 1.000000
198 1 10.764969 167.330658 303.476115 167.330658 0.000000 0.000000 1.000000 1.000000 1.000000
199 1 74.493238 228.505556 74.493238 228.505556 -0.000000 0.000000 1.000000 1.000000 1.000000
200 1 240.490379 77.193978 240.490379 77.193978 -0.000000 0.000000 1.000000 1.000000 1.000000
201 1 120.034080 135.119824 120.034080 135.119824 0.000000 0.000000 1.000000 1.000000 1.000000
202 1 56.720771 218.274222 56.720771 218.274222 -0.000000 0.000000 1.000000 1.000000 1.000000
203 1 161.049547 247.985251 161.049547 247.985251 -0.000000 -0.000000 1.000000 1.000000 1.000000
204 1 131.056636 201.461240 131.056636 201.461240 -0.000000 -0.000000 1.000000 1.000000 1.000000
205 1 211.055424 24.747664 211.055424 24.747664 -0.000000 0.000000 1.000000 1.000000 1.000000
206 1 13.191780 257.455488 13.191780 257.455488 0.000000 0.000000 1.000000 1.000000 1.000000
207 1 115.475218 15.690015 115.475218 15.690015 0.000000 -0.000000 1.000000 1.000000 1.000000
208 1 231.278269 135.374533 231.278269 135.374533 0.000000 -0.000000 1.000000 1.000000 1.000000
209 1 185.855005 122.258535 185.855005 122.258535 -0.000000 0.000000 1.000000 1.000000 1.000000
210 1 55.961695 123.801011 55.961695 123.801011 -0.000000 -0.000000 1.000000 1.000000 1.000000
211 1 276.924579 126.491728 276.924579 126.491728 -0.000000 0.000000 1.000000 1.000000 1.000000
212 1 268.824700 174.127988 268.824700 174.127988 0.000000 0.000000 1.000000 1.000000 1.000000
213 1 273.360666 141.628066 273.360666 141.628066 0.000000 -0.000000 1.000000 1.000000 1.000000
214 1 279.839866 119.193066 279.839866 119.193066 -0.000000 0.000000 1.000000 1.000000 1.000000
215 1 0.893754 97.078694 293.604900 97.078694 -0.000000 -0.000000 1.000000 1.000000 1.000000
216 1 97.276244 26.371865 97.276244 26.371865 -0.000000 0.000000 1.000000 1.000000 1.000000
217 1 88.704417 231.278560 88.704417 231.278560 -0.000000 -0.000000 1.000000 1.000000 1.000000
218 1 251.673689 148.210816 251.673689 148.210816 0.000000 0.000000 1.000000 1.000000 1.000000
219 1 21.498538 161.058742 21.498538 161.058742 0.000000 0.000000 1.000000 1.000000 1.000000
220 1 211.724286 168.002122 211.724286 168.002122 -0.000000 0.000000 1.000000 1.000000 1.000000
221 1 5.666655 40.647660 298.377801 40.647660 0.000000 0.000000 1.000000 1.000000 1.000000
222 1 144.031929 282.237418 144.031929 282.237418 0.000000 0.000000 1.000000 1.000000 1.000000
223 1 111.038336 194.687666 111.038336 194.687666 0.000000 -0.000000 1.000000 1.000000 1.000000
224 1 61.013433 107.406206 61.013433 107.406206 0.000000 -0.000000 1.000000 1.000000 1.000000
225 1 278.270290 47.842630 278.270290 47.842630 0.000000 -0.000000 1.000000 1.000000 1.000000
226 1 281.658365 0.941668 281.658365 293.652814 0.000000 -0.000000 1.000000 1.000000 1.000000
227 1 162.466007 95.485679 162.466007 95.485679 0.000000 0.000000 1.000000 1.000000 1.000000
228 1 176.228792 103.803911 176.228792 103.803911 -0.000000 0.000000 1.000000 1.000000 1.000000
229 1 104.123109 160.273197 104.123109 160.273197 0.000000 0.000000 1.000000 1.000000 1.000000
230 1 257.688591 77.622521 257.688591 77.622521 -0.000000 0.000000 1.000000 1.000000 1.000000
231 1 73.057482 30.240600 73.057482 30.240600 -0.000000 -0.000000 1.000000 1.000000 1.000000
232 1 257.442190 270.425090 257.442190 270.425090 -0.000000 -0.000000 1.000000 1.000000 1.000000
233 1 235.816333 31.055188 235.816333 31.055188 -0.000000 -0.000000 1.000000 1.000000 1.000000
234 1 10.576633 60.375540 10.576633 60.375540 0.000000 -0.000000 1.000000 1.000000 1.000000
235 1 77.800721 285.314523 77.800721 285.314523 -0.000000 -0.000000 1.000000 1.000000 1.000000
236 1 131.654178 97.762533 131.654178 97.762533 0.000000 -0.000000 1.000000 1.000000 1.000000
237 1 90.209344 149.143406 90.209344 149.143406 -0.000000 -0.000000 1.000000 1.000000 1.000000
238 1 138.037510 100.543624 138.037510 100.543624 -0.000000 0.000000 1.000000 1.000000 1.000000
239 1 37.654891 243.604138 37.654891 243.604138 -0.000000 -0.000000 1.000000 1.000000 1.000000
240 1 239.478169 40.965204 239.478169 40.965204 -0.000000 -0.000000 1.000000 1.000000 1.000000
241 1 181.832959 281.471178 181.832959 281.471178 0.000000 -0.000000 1.000000 1.000000 1.000000
242 1 98.257031 51.968382 98.257031 51.968382 -0.000000 -0.000000 1.000000 1.000000 1.000000
243 1 11.350417 53.695277 11.350417 53.695277 -0.000000 -0.000000 1.000000 1.000000 1.000000
244 1 193.225339 250.686905 193.225339 250.686905 0.000000 -0.000000 1.000000 1.000000 1.000000
245 1 180.584922 169.339056 180.584922 169.339056 0.000000 -0.000000 1.000000 1.000000 1.000000
246 1 89.469655 98.616963 89.469655 98.616963 -0.000000 0.000000 1.000000 1.000000 1.000000
247 1 96.284411 18.934412 96.284411 18.934412 0.000000 -0.000000 1.000000 1.000000 1.000000
248 1 14.047208 69.609584 14.047208 69.609584 -0.000000 0.000000 1.000000 1.000000 1.000000
249 1 278.854293 13.898264 278.854293 13.898264 -0.000000 0.000000 1.000000 1.000000 1.000000
250 1 230.105935 250.523625 230.105935 250.523625 0.000000 -0.000000 1.000000 1.000000 1.000000
251 1 170.806177 162.205499 170.806177 162.205499 0.000000 -0.000000 1.000000 1.000000 1.000000
252 1 208.910473 274.284414 208.910473 274.284414 0.000000 0.000000 1.000000 1.000000 1.000000
253 1 34.312201 53.061276 34.312201 53.061276 -0.000000 -0.000000 1.000000 1.000000 1.000000
254 1 2.592534 229.866352 295.303680 229.866352 -0.000000 -0.000000 1.000000 1.000000 1.000000
255 1 221.363005 141.162458 221.363005 141.162458 -0.000000 -0.000000 1.000000 1.000000 1.000000
256 1 262.281658 17.611989 262.281658 310.323135 -0.000000 0.000000 1.000000 1.000000 1.000000
257 1 212.838026 181.454455 212.838026 181.454455 0.000000 -0.000000 1.000000 1.000000 1.000000
258 1 186.936059 206.975415 186.936059 206.975415 0.000000 0.000000 1.000000 1.000000 1.000000
259 1 111.272113 206.288522 111.272113 206.288522 0.000000 -0.000000 1.000000 1.000000 1.000000
260 1 268.133163 135.035555 268.133163 135.035555 0.000000 -0.000000 1.000000 1.000000 1.000000
261 1 70.394577 40.823099 70.394577 40.823099 -0.000000 -0.000000 1.000000 1.000000 1.000000
262 1 179.577386 218.288312 179.577386 218.288312 0.000000 -0.000000 1.000000 1.000000 1.000000
263 1 49.789258 122.838537 49.789258 122.838537 -0.000000 0.000000 1.000000 1.000000 1.000000
264 1 79.822138 61.170561 79.822138 61.170561 -0.000000 0.000000 1.000000 1.000000 1.000000
265 1 283.671888 284.397702 283.671888 284.397702 0.000000 0.000000 1.000000 1.000000 1.000000
266 1 229.134012 99.572898 229.134012 99.572898 -0.000000 0.000000 1.000000 1.000000 1.000000
267 1 31.360572 65.920415 31.360572 65.920415 0.000000 0.000000 1.000000 1.000000 1.000000
268 1 221.371454 105.699915 221.371454 105.699915 -0.000000 0.000000 1.000000 1.000000 1.000000
269 1 262.508842 28.884226 262.508842 28.884226 -0.000000 0.000000 1.000000 1.000000 1.000000
270 1 281.572085 286.228609 281.572085 -6.482537 -0.000000 -0.000000 1.000000 1.000000 1.000000
271 1 247.507116 28.467241 247.507116 28.467241 0.000000 0.000000 1.000000 1.000000 1.000000
272 1 202.310006 135.602197 202.310006 135.602197 0.000000 -0.000000 1.000000 1.000000 1.000000
273 1 276.813262 281.493551 276.813262 -11.217595 0.000000 -0.000000 1.000000 1.000000 1.000000
274 1 161.514905 199.656013 161.514905 199.656013 0.000000 0.000000 1.000000 1.000000 1.000000
275 1 206.539546 20.664180 206.539546 20.664180 -0.000000 0.000000 1.000000 1.000000 1.000000
276 1 244.543693 216.655889 244.543693 216.655889 -0.000000 0.000000 1.000000 1.000000 1.000000
277 1 291.418174 93.731153 -1.292972 93.731153 -0.000000 -0.000000 1.000000 1.000000 1.000000
278 1 65.698586 203.228200 65.698586 203.228200 -0.000000 0.000000 1.000000 1.000000 1.000000
279 1 186.791203 236.991613 186.791203 236.991613 0.000000 -0.000000 1.000000 1.000000 1.000000
280 1 37.630586 40.270155 37.630586 40.270155 0.000000 -0.000000 1.000000 1.000000 1.000000
281 1 142.384748 217.589388 142.384748 217.589388 0.000000 -0.000000 1.000000 1.000000 1.000000
282 1 38.224582 31.032738 38.224582 31.032738 -0.000000 -0.000000 1.000000 1.000000 1.000000
283 1 16.714633 233.225709 16.714633 233.225709 0.000000 -0.000000 1.000000 1.000000 1.000000
284 1 268.525874 129.185358 268.525874 129.185358 -0.000000 0.000000 1.000000 1.000000 1.000000
285 1 182.626756 263.977745 182.626756 263.977745 0.000000 0.000000 1.000000 1.000000 1.000000
286 1 147.247163 129.684601 147.247163 129.684601 -0.000000 0.000000 1.000000 1.000000 1.000000
287 1 178.923778 183.508399 178.923778 183.508399 -0.000000 0.000000 1.000000 1.000000 1.000000
288 1 66.308150 9.376871 66.308150 9.376871 0.000000 -0.000000 1.000000 1.000000 1.000000
289 1 134.246769 233.506991 134.246769 233.506991 -0.000000 0.000000 1.000000 1.000000 1.000000
290 1 60.068520 213.041344 60.068520 213.041344 0.000000 0.000000 1.000000 1.000000 1.000000
291 1 241.798587 18.644589 241.798587 311.355735 0.000000 0.000000 1.000000 1.000000 1.000000
292 1 126.260284 144.510670 126.260284 144.510670 -0.000000 -0.000000 1.000000 1.000000 1.000000
293 1 55.311733 274.698105 55.311733 274.698105 0.000000 -0.000000 1.000000 1.000000 1.000000
294 1 178.375732 119.746157 178.375732 119.746157 0.000000 -0.000000 1.000000 1.000000 1.000000
295 1 178.992314 205.168793 178.992314 205.168793 0.000000 -0.000000 1.000000 1.000000 1.000000
296 1 4.810360 235.674405 297.521506 235.674405 0.000000 0.000000 1.000000 1.000000 1.000000
297 1 195.509457 62.846288 195.509457 62.846288 -0.000000 -0.000000 1.000000 1.000000 1.000000
298 1 13.051517 245.115731 13.051517 245.115731 -0.000000 -0.000000 1.000000 1.000000 1.000000
299 1 98.727382 216.181856 98.727382 216.181856 -0.000000 -0.000000 1.000000 1.000000 1.000000
300 1 137.261884 268.326262 137.261884 268.326262 -0.000000 0.000000 1.000000 1.000000 1.000000
301 1 81.433607 143.583948 81.433607 143.583948 -0.000000 0.000000 1.000000 1.000000 1.000000
302 1 119.960141 282.864937 119.960141 282.864937 -0.000000 -0.000000 1.000000 1.000000 1.000000
303 1 136.947601 44.250465 136.947601 44.250465 -0.000000 0.000000 1.000000 1.000000 1.000000
304 1 267.842582 35.254973 267.842582 35.254973 0.000000 -0.000000 1.000000 1.000000 1.000000
305 1 120.493140 255.929970 120.493140 255.929970 -0.000000 -0.000000 1.000000 1.000000 1.000000
306 1 162.066554 130.786485 162.066554 130.786485 0.000000 -0.000000 1.000000 1.000000 1.000000
307 1 234.267180 261.394718 234.267180 261.394718 -0.000000 0.000000 1.000000 1.000000 1.000000
308 1 216.016661 23.517797 216.016661 316.228943 -0.000000 -0.000000 1.000000 1.000000 1.000000
309 1 5.973888 30.292705 5.973888 30.292705 -0.000000 -0.000000 1.000000 1.000000 1.000000
310 1 152.241173 65.627161 152.241173 65.627161 0.000000 0.000000 1.000000 1.000000 1.000000
311 1 235.200372 1.862027 235.200372 294.573173 0.000000 0.000000 1.000000 1.000000 1.000000
312 1 38.549874 191.320246 38.549874 191.320246 -0.000000 -0.000000 1.000000 1.000000 1.000000
313 1 234.151649 277.845090 234.151649 277.845090 -0.000000 0.000000 1.000000 1.000000 1.000000
314 1 57.050173 54.092884 57.050173 54.092884 0.000000 -0.000000 1.000000 1.000000 1.000000
315 1 94.597189 29.846671 94.597189 29.846671 0.000000 -0.000000 1.000000 1.000000 1.000000