ITEM: TIMESTEP
1200.000000
ITEM: NUMBER OF ATOMS
5000
ITEM: BOX BOUNDS xy xz yz
0 308.403059 0
0 308.403059 0
0 2 0
ITEM: ATOMS id type x y xu yu vx vy radius m z
0 1 153.811834 42.806009 153.811834 42.806009 0.000000 -0.000000 1.000000 1.000000 1.000000
1 1 265.262707 146.915182 265.262707 146.915182 0.000000 -0.000000 1.000000 1.000000 1.000000
2 1 65.543248 143.229038 65.543248 143.229038 0.000000 -0.000000 1.000000 1.000000 1.000000
3 1 1.759730 69.376707 310.162789 69.376707 -0.000000 -0.000000 1.000000 1.000000 1.000000
4 1 124.245634 149.600126 124.245634 149.600126 -0.000000 0.000000 1.000000 1.000000 1.000000
5 1 293.575477 273.950481 -14.827582 273.950481 0.000000 -0.000000 1.000000 1.000000 1.000000
6 1 25.421128 121.622373 25.421128 121.622373 -0.000000 -0.000000 1.000000 1.000000 1.000000
7 1 228.007856 274.483749 228.007856 274.483749 -0.000000 -0.000000 1.000000 1.000000 1.000000
8 1 194.027088 198.042480 194.027088 198.042480 0.000000 0.000000 1.000000 1.000000 1.000000
9 1 159.374503 117.533332 159.374503 117.533332 -0.000000 -0.000000 1.000000 1.000000 1.000000
10 1 241.951869 165.606794 241.951869 165.606794 0.000000 0.000000 1.000000 1.000000 1.000000
11 1 175.521421 27.233198 175.521421 27.233198 -0.000000 0.000000 1.000000 1.000000 1.000000
12 1 151.357146 59.266928 151.357146 59.266928 0.000000 0.000000 1.000000 1.000000 1.000000
13 1 200.376934 244.207843 200.376934 244.207843 -0.000000 -0.000000 1.000000 1.000000 1.000000
14 1 176.608867 170.195299 176.608867 170.195299 -0.000000 -0.000000 1.000000 1.000000 1.000000
15 1 249.995924 162.703414 249.995924 162.703414 -0.000000 -0.000000 1.000000 1.000000 1.000000
16 1 234.130398 261.040600 234.130398 261.040600 -0.000000 -0.000000 1.000000 1.000000 1.000000
17 1 33.172679 29.007169 33.172679 29.007169 0.000000 0.000000 1.000000 1.000000 1.000000
18 1 221.740063 173.523987 221.740063 173.523987 0.000000 0.000000 1.000000 1.000000 1.000000
19 1 15.031768 169.119295 15.031768 169.119295 -0.000000 -0.000000 1.000000 1.000000 1.000000
20 1 212.203922 29.991700 212.203922 29.991700 0.000000 0.000000 1.000000 1.000000 1.000000
21 1 235.237789 263.468302 235.237789 263.468302 0.000000 -0.000000 1.000000 1.000000 1.000000
22 1 163.963968 185.027455 163.963968 185.027455 -0.000000 -0.000000 1.000000 1.000000 1.000000
23 1 109.594699 36.067978 109.594699 36.067978 -0.000000 0.000000 1.000000 1.000000 1.000000
24 1 10.193771 153.371383 10.193771 153.371383 0.000000 -0.000000 1.000000 1.000000 1.000000
25 1 294.191723 16.783760 294.191723 325.186819 -0.000000 -0.000000 1.000000 1.000000 1.000000
26 1 178.110044 21.569056 178.110044 21.569056 0.000000 0.000000 1.000000 1.000000 1.000000
27 1 285.249254 212.050495 285.249254 212.050495 -0.000000 -0.000000 1.000000 1.000000 1.000000
28 1 217.796787 306.451184 217.796787 306.451184 0.000000 -0.000000 1.000000 1.000000 1.000000
29 1 224.673896 258.539925 224.673896 258.539925 0.000000 0.000000 1.000000 1.000000 1.000000
30 1 30.073462 135.326656 30.073462 135.326656 0.000000 0.000000 1.000000 1.000000 1.000000
31 1 254.657630 290.069110 254.657630 290.069110 -0.000000 -0.000000 1.000000 1.000000 1.000000
32 1 72.695293 283.630752 72.695293 283.630752 -0.000000 -0.000000 1.000000 1.000000 1.000000
33 1 52.799033 287.117354 52.799033 287.117354 -0.000000 0.000000 1.000000 1.000000 1.000000
34 1 281.781794 243.416778 281.781794 243.416778 -0.000000 0.000000 1.000000 1.000000 1.000000
35 1 268.143142 259.386532 268.143142 259.386532 -0.000000 0.000000 1.000000 1.000000 1.000000
36 1 39.721556 257.803428 39.721556 257.803428 -0.000000 0.000000 1.000000 1.000000 1.000000
37 1 213.093963 301.303349 213.093963 301.303349 -0.000000 0.000000 1.000000 1.000000 1.000000
38 1 134.630857 83.430488 134.630857 83.430488 0.000000 0.000000 1.000000 1.000000 1.000000
39 1 261.104016 217.844987 261.104016 217.844987 0.000000 0.000000 1.000000 1.000000 1.000000
40 1 142.684023 275.108601 142.684023 275.108601 -0.000000 -0.000000 1.000000 1.000000 1.000000
41 1 110.768856 154.934695 110.768856 154.934695 -0.000000 -0.000000 1.000000 1.000000 1.000000
42 1 86.465339 272.573423 86.465339 272.573423 -0.000000 -0.000000 1.000000 1.000000 1.000000
43 1 101.140966 268.570837 101.140966 268.570837 0.000000 -0.000000 1.000000 1.000000 1.000000
44 1 59.393571 164.839725 59.393571 164.839725 0.000000 0.000000 1.000000 1.000000 1.000000
45 1 132.999240 41.145517 132.999240 41.145517 0.000000 0.000000 1.000000 1.000000 1.000000
46 1 53.754388 47.436935 53.754388 47.436935 0.000000 -0.000000 1.000000 1.000000 1.000000
47 1 108.728317 143.064431 108.728317 143.064431 0.000000 0.000000 1.000000 1.000000 1.000000
48 1 194.284022 45.082207 194.284022 45.082207 0.000000 -0.000000 1.000000 1.000000 1.000000
49 1 254.617407 77.002913 254.617407 77.002913 0.000000 -0.000000 1.000000 1.000000 1.000000
50 1 29.890143 103.460670 29.890143 103.460670 0.000000 0.000000 1.000000 1.000000 1.000000
51 1 84.416569 150.360181 84.416569 150.360181 0.000000 -0.000000 1.000000 1.000000 1.000000
52 1 210.950394 80.791667 210.950394 80.791667 -0.000000 -0.000000 1.000000 1.000000 1.000000
53 1 1.952354 195.355569 310.355413 195.355569 -0.000000 0.000000 1.000000 1.000000 1.000000
54 1 121.875558 106.674079 121.875558 106.674079 -0.000000 -0.000000 1.000000 1.000000 1.000000
55 1 31.155902 181.764038 31.155902 181.764038 0.000000 -0.000000 1.000000 1.000000 1.000000
56 1 58.872943 297.331688 58.872943 297.331688 -0.000000 0.000000 1.000000 1.000000 1.000000
57 1 221.387944 164.083610 221.387944 164.083610 -0.000000 0.000000 1.000000 1.000000 1.000000
58 1 55.660790 131.544952 55.660790 131.544952 -0.000000 -0.000000 1.000000 1.000000 1.000000
59 1 214.491398 9.172187 214.491398 9.172187 -0.000000 -0.000000 1.000000 1.000000 1.000000
60 1 223.185671 184.515849 223.185671 184.515849 0.000000 0.000000 1.000000 1.000000 1.000000
61 1 198.374284 181.133781 198.374284 181.133781 -0.000000 -0.000000 1.000000 1.000000 1.000000
62 1 301.528714 187.567038 -6.874345 187.567038 -0.000000 -0.000000 1.000000 1.000000 1.000000
63 1 263.366103 30.126930 263.366103 30.126930 0.000000 -0.000000 1.000000 1.000000 1.000000
64 1 63.907218 18.491783 63.907218 18.491783 0.000000 -0.000000 1.000000 1.000000 1.000000
65 1 187.299532 215.593280 187.299532 215.593280 -0.000000 -0.000000 1.000000 1.000000 1.000000
66 1 139.764106 107.368489 139.764106 107.368489 0.000000 -0.000000 1.000000 1.000000 1.000000
67 1 35.883087 98.506115 35.883087 98.506115 0.000000 0.000000 1.000000 1.000000 1.000000
68 1 133.196998 242.825888 133.196998 242.825888 -0.000000 -0.000000 1.000000 1.000000 1.000000
69 1 103.174158 23.481322 103.174158 23.481322 0.000000 -0.000000 1.000000 1.000000 1.000000
70 1 196.059255 120.844500 196.059255 120.844500 -0.000000 -0.000000 1.000000 1.000000 1.000000
71 1 306.420675 79.898348 306.420675 79.898348 0.000000 0.000000 1.000000 1.000000 1.000000
72 1 156.949334 193.782337 156.949334 193.782337 0.000000 -0.000000 1.000000 1.000000 1.000000
73 1 150.470622 272.063578 150.470622 272.063578 -0.000000 0.000000 1.000000 1.000000 1.000000
74 1 280.087447 202.185332 280.087447 202.185332 0.000000 0.000000 1.000000 1.000000 1.000000
75 1 282.922349 147.145399 282.922349 147.145399 -0.000000 0.000000 1.000000 1.000000 1.000000
76 1 21.174363 6.209095 21.174363 314.612154 0.000000 0.000000 1.000000 1.000000 1.000000
77 1 6.016146 187.967964 6.016146 187.967964 -0.000000 -0.000000 1.000000 1.000000 1.000000
78 1 251.343212 204.922979 251.343212 204.922979 0.000000 -0.000000 1.000000 1.000000 1.000000
79 1 303.301930 263.224542 303.301930 263.224542 0.000000 0.000000 1.000000 1.000000 1.000000
80 1 257.283718 100.810895 257.283718 100.810895 0.000000 -0.000000 1.000000 1.000000 1.000000
81 1 122.678792 207.747005 122.678792 207.747005 -0.000000 -0.000000 1.000000 1.000000 1.000000
82 1 126.689545 274.228881 126.689545 274.228881 0.000001 -0.000000 1.000000 1.000000 1.000000
83 1 299.139302 278.573017 299.139302 278.573017 -0.000000 0.000000 1.000000 1.000000 1.000000
84 1 227.700698 139.086417 227.700698 139.086417 0.000000 -0.000000 1.000000 1.000000 1.000000
85 1 155.974255 46.655477 155.974255 46.655477 -0.000000 -0.000000 1.000000 1.000000 1.000000
86 1 278.499594 22.694300 278.499594 22.694300 -0.000000 -0.000000 1.000000 1.000000 1.000000
87 1 34.206915 72.309907 34.206915 72.309907 0.000000 0.000000 1.000000 1.000000 1.000000
88 1 184.220898 70.649709 184.220898 70.649709 0.000000 0.000000 1.000000 1.000000 1.000000
89 1 221.332902 206.120765 221.332902 206.120765 -0.000000 0.000000 1.000000 1.000000 1.000000
90 1 161.451302 44.069052 161.451302 44.069052 0.000000 0.000000 1.000000 1.000000 1.000000
91 1 261.588815 245.519923 261.588815 245.519923 -0.000000 -0.000000 1.000000 1.000000 1.000000
92 1 3.299201 64.829144 3.299201 64.829144 -0.000000 0.000000 1.000000 1.000000 1.000000
93 1 74.638847 1.668959 74.638847 1.668959 -0.000000 -0.000000 1.000000 1.000000 1.000000
94 1 17.026674 52.001735 17.026674 52.001735 -0.000000 0.000000 1.000000 1.000000 1.000000
95 1 304.778063 170.956821 304.778063 170.956821 0.000000 0.000000 1.000000 1.000000 1.000000
96 1 219.056366 277.812479 219.056366 277.812479 0.000000 -0.000000 1.000000 1.000000 1.000000
97 1 98.623761 165.444810 98.623761 165.444810 0.000000 -0.000000 1.000000 1.000000 1.000000
98 1 305.700594 84.183575 -2.702465 84.183575 -0.000000 -0.000000 1.000000 1.000000 1.000000
99 1 96.028772 70.282665 96.028772 70.282665 0.000000 -0.000000 1.000000 1.000000 1.000000
100 1 300.351347 19.734297 300.351347 19.734297 0.000000 0.000000 1.000000 1.000000 1.000000
101 1 266.708063 38.696139 266.708063 38.696139 0.000000 -0.000000 1.000000 1.000000 1.000000
102 1 274.338508 64.278803 274.338508 64.278803 0.000000 -0.000000 1.000000 1.000000 1.000000
103 1 277.219359 173.688526 277.219359 173.688526 -0.000000 0.000000 1.000000 1.000000 1.000000
104 1 287.347401 185.603573 287.347401 185.603573 0.000000 -0.000000 1.000000 1.000000 1.000000
105 1 82.207324 249.005737 82.207324 249.005737 0.000000 -0.000000 1.000000 1.000000 1.000000
106 1 116.465605 278.896865 116.465605 278.896865 -0.000000 -0.000000 1.000000 1.000000 1.000000
107 1 272.698022 120.708434 272.698022 120.708434 -0.000000 -0.000000 1.000000 1.000000 1.000000
108 1 160.171631 257.402989 160.171631 257.402989 -0.000000 -0.000000 1.000000 1.000000 1.000000
109 1 277.851517 218.170228 277.851517 218.170228 0.000000 -0.000000 1.000000 1.000000 1.000000
110 1 80.692025 68.543657 80.692025 68.543657 0.000000 0.000000 1.000000 1.000000 1.000000
111 1 99.364056 301.968636 99.364056 301.968636 -0.000000 0.000000 1.000000 1.000000 1.000000
112 1 236.009540 303.032523 236.009540 -5.370536 0.000000 -0.000000 1.000000 1.000000 1.000000
113 1 193.132632 67.531792 193.132632 67.531792 0.000000 0.000000 1.000000 1.000000 1.000000
114 1 43.942658 304.719286 43.942658 304.719286 -0.000000 0.000000 1.000000 1.000000 1.000000
115 1 282.579998 161.636856 282.579998 161.636856 -0.000000 -0.000000 1.000000 1.000000 1.000000
116 1 2.737275 13.187434 2.737275 13.187434 0.000000 -0.000000 1.000000 1.000000 1.000000
117 1 270.189647 45.366670 270.189647 45.366670 0.000000 -0.000000 1.000000 1.000000 1.000000
118 1 86.414089 253.994231 86.414089 253.994231 -0.000000 0.000000 1.000000 1.000000 1.000000
119 1 13.765884 33.266144 322.168943 33.266144 -0.000000 0.000000 1.000000 1.000000 1.000000
120 1 10.336257 43.149859 10.336257 43.149859 -0.000000 -0.000000 1.000000 1.000000 1.000000
121 1 299.452549 144.562052 299.452549 144.562052 -0.000000 0.000000 1.000000 1.000000 1.000000
122 1 13.278475 26.526009 13.278475 26.526009 0.000000 0.000000 1.000000 1.000000 1.000000
123 1 227.766479 173.223171 227.766479 173.223171 0.000000 0.000000 1.000000 1.000000 1.000000
124 1 268.277169 88.849736 268.277169 88.849736 0.000000 -0.000000 1.000000 1.000000 1.000000
125 1 135.866901 222.221188 135.866901 222.221188 0.000000 -0.000000 1.000000 1.000000 1.000000
126 1 44.769403 145.707464 44.769403 145.707464 0.000000 -0.000000 1.000000 1.000000 1.000000
127 1 44.258470 86.593122 44.258470 86.593122 -0.000000 0.000000 1.000000 1.000000 1.000000
128 1 83.627014 262.721526 83.627014 262.721526 -0.000000 -0.000000 1.000000 1.000000 1.000000
129 1 272.401401 7.593546 272.401401 7.593546 0.000000 -0.000000 1.000000 1.000000 1.000000
130 1 206.946744 267.686011 206.946744 267.686011 0.000000 0.000000 1.000000 1.000000 1.000000
131 1 31.975544 228.264545 31.975544 228.264545 -0.000000 -0.000000 1.000000 1.000000 1.000000
132 1 154.251081 150.681739 154.251081 150.681739 0.000000 0.000000 1.000000 1.000000 1.000000
133 1 284.834066 153.602174 284.834066 153.602174 0.000000 0.000000 1.000000 1.000000 1.000000
134 1 293.733801 211.283696 293.733801 211.283696 -0.000000 0.000000 1.000000 1.000000 1.000000
135 1 2.536689 47.389470 2.536689 47.389470 -0.000000 0.000000 1.000000 1.000000 1.000000
136 1 205.620077 291.126549 205.620077 291.126549 -0.000000 0.000000 1.000000 1.000000 1.000000
137 1 79.440032 199.639201 79.440032 199.639201 -0.000000 0.000000 1.000000 1.000000 1.000000
138 1 228.747147 226.110742 228.747147 226.110742 0.000000 0.000000 1.000000 1.000000 1.000000
139 1 13.838682 299.815879 13.838682 299.815879 0.000000 -0.000000 1.000000 1.000000 1.000000
140 1 177.696899 93.102941 177.696899 93.102941 -0.000000 -0.000000 1.000000 1.000000 1.000000
141 1 234.025713 233.378368 234.025713 233.378368 0.000000 0.000000 1.000000 1.000000 1.000000
142 1 268.090827 197.276224 268.090827 197.276224 -0.000000 0.000000 1.000000 1.000000 1.000000
143 1 160.707689 246.805083 160.707689 246.805083 -0.000000 0.000000 1.000000 1.000000 1.000000
144 1 63.913607 130.493348 63.913607 130.493348 0.000000 0.000000 1.000000 1.000000 1.000000
145 1 167.131298 115.328484 167.131298 115.328484 0.000000 -0.000000 1.000000 1.000000 1.000000
146 1 67.575140 217.175449 67.575140 217.175449 0.000000 0.000000 1.000000 1.000000 1.000000
147 1 148.578401 137.737404 148.578401 137.737404 0.000000 0.000000 1.000000 1.000000 1.000000
148 1 63.363792 279.846080 63.363792 279.846080 0.000000 -0.000000 1.000000 1.000000 1.000000
149 1 226.615335 164.452312 226.615335 164.452312 -0.000000 0.000000 1.000000 1.000000 1.000000
150 1 20.478778 239.529832 20.478778 239.529832 -0.000000 0.000000 1.000000 1.000000 1.000000
151 1 126.693613 234.411787 126.693613 234.411787 -0.000000 0.000000 1.000000 1.000000 1.000000
152 1 278.131088 44.885085 278.131088 44.885085 0.000000 -0.000000 1.000000 1.000000 1.000000
153 1 274.360491 230.243745 274.360491 230.243745 -0.000000 0.000000 1.000000 1.000000 1.000000
154 1 176.708346 96.797335 176.708346 96.797335 0.000000 -0.000000 1.000000 1.000000 1.000000
155 1 149.207186 179.675844 149.207186 179.675844 -0.000000 -0.000000 1.000000 1.000000 1.000000
156 1 123.985509 4.107464 123.985509 312.510523 0.000000 0.000000 1.000000 1.000000 1.000000
157 1 56.013819 150.526662 56.013819 150.526662 -0.000000 -0.000000 1.000000 1.000000 1.000000
158 1 37.569669 196.035755 37.569669 196.035755 -0.000000 0.000000 1.000000 1.000000 1.000000
159 1 73.382228 5.449544 73.382228 5.449544 0.000000 0.000000 1.000000 1.000000 1.000000
160 1 45.203354 13.890696 45.203354 13.890696 -0.000000 -0.000000 1.000000 1.000000 1.000000
161 1 268.207373 216.231456 268.207373 216.231456 0.000000 -0.000000 1.000000 1.000000 1.000000
162 1 112.688175 131.047555 112.688175 131.047555 -0.000000 -0.000000 1.000000 1.000000 1.000000
163 1 13.756214 30.080006 13.756214 30.080006 -0.000000 0.000000 1.000000 1.000000 1.000000
164 1 56.675202 24.662827 56.675202 24.662827 0.000000 -0.000000 1.000000 1.000000 1.000000
165 1 267.798769 67.092374 267.798769 67.092374 0.000000 -0.000000 1.000000 1.000000 1.000000
166 1 302.443800 99.075291 302.443800 99.075291 0.000000 -0.000000 1.000000 1.000000 1.000000
167 1 78.151146 153.377064 78.151146 153.377064 -0.000000 0.000000 1.000000 1.000000 1.000000
168 1 71.611995 233.073454 71.611995 233.073454 -0.000000 -0.000000 1.000000 1.000000 1.000000
169 1 258.696920 289.940940 258.696920 289.940940 0.000000 -0.000000 1.000000 1.000000 1.000000
170 1 226.985016 246.552434 226.985016 246.552434 0.000000 -0.000000 1.000000 1.000000 1.000000
171 1 153.227936 158.314791 153.227936 158.314791 0.000000 -0.000000 1.000000 1.000000 1.000000
172 1 130.050896 187.591987 130.050896 187.591987 -0.000000 -0.000000 1.000000 1.000000 1.000000
173 1 7.414089 52.331416 7.414089 52.331416 0.000000 -0.000000 1.000000 1.000000 1.000000
174 1 213.721682 154.026087 213.721682 154.026087 0.000000 -0.000000 1.000000 1.000000 1.000000
175 1 124.751165 304.456396 124.751165 -3.946663 -0.000000 -0.000000 1.000000 1.000000 1.000000
176 1 267.552419 220.307474 267.552419 220.307474 0.000000 0.000000 1.000000 1.000000 1.000000
177 1 149.193470 228.935723 149.193470 228.935723 0.000000 0.000000 1.000000 1.000000 1.000000
178 1 179.088050 123.514307 179.088050 123.514307 0.000000 -0.000000 1.000000 1.000000 1.000000
179 1 140.180923 238.570048 140.180923 238.570048 0.000000 0.000000 1.000000 1.000000 1.000000
180 1 236.731417 143.034919 236.731417 143.034919 0.000000 0.000000 1.000000 1.000000 1.000000
181 1 305.911701 88.719314 -2.491358 88.719314 -0.000000 -0.000000 1.000000 1.000000 1.000000
182 1 106.215697 51.621825 106.215697 51.621825 -0.000000 0.000000 1.000000 1.000000 1.000000
183 1 74.013198 224.442345 74.013198 224.442345 0.000000 0.000000 1.000000 1.000000 1.000000
184 1 56.800918 268.409573 56.800918 268.409573 -0.000000 -0.000000 1.000000 1.000000 1.000000
185 1 207.627054 185.406812 207.627054 185.406812 -0.000000 -0.000000 1.000000 1.000000 1.000000
186 1 245.137235 288.520929 245.137235 288.520929 -0.000000 -0.000000 1.000000 1.000000 1.000000
187 1 55.141638 246.539297 55.141638 246.539297 0.000000 0.000000 1.000000 1.000000 1.000000
188 1 199.710837 99.543807 199.710837 99.543807 0.000000 0.000000 1.000000 1.000000 1.000000
189 1 252.356958 292.850643 252.356958 292.850643 0.000000 0.000000 1.000000 1.000000 1.000000
190 1 72.044149 103.833491 72.044149 103.833491 -0.000000 -0.000000 1.000000 1.000000 1.000000
191 1 211.528883 249.042967 211.528883 249.042967 0.000000 0.000000 1.000000 1.000000 1.000000
192 1 163.985939 93.887251 163.985939 93.887251 0.000000 -0.000000 1.000000 1.000000 1.000000
193 1 40.899008 271.467559 40.899008 271.467559 0.000000 0.000000 1.000000 1.000000 1.000000
194 1 118.519361 171.196950 118.519361 171.196950 0.000000 0.000000 1.000000 1.000000 1.000000
195 1 134.106839 232.399258 134.106839 232.399258 -0.000000 0.000000 1.000000 1.000000 1.000000
196 1 206.877381 221.279274 206.877381 221.279274 0.000000 -0.000000 1.000000 1.000000 1.000000
197 1 124.884507 233.126336 124.884507 233.126336 0.000000 -0.000000 1.000000 1.000000 1.000000
198 1 109.829249 304.428026 109.829249 -3.975033 0.000000 -0.000000 1.000000 1.000000 1.000000
199 1 136.012123 249.868070 136.012123 249.868070 0.000000 -0.000000 1.000000 1.000000 1.000000
200 1 115.387934 147.437069 115.387934 147.437069 -0.000000 -0.000000 1.000000 1.000000 1.000000
201 1 128.124128 125.192241 128.124128 125.192241 -0.000000 0.000000 1.000000 1.000000 1.000000
202 1 30.276251 188.215667 30.276251 188.215667 -0.000000 -0.000000 1.000000 1.000000 1.000000
203 1 172.049489 30.788272 172.049489 30.788272 0.000000 -0.000000 1.000000 1.000000 1.000000
204 1 281.078443 212.758004 281.078443 212.758004 0.000000 -0.000000 1.000000 1.000000 1.000000
205 1 3.609711 177.881447 3.609711 177.881447 -0.000000 0.000000 1.000000 1.000000 1.000000
206 1 31.213564 66.272645 31.213564 66.272645 0.000000 0.000000 1.000000 1.000000 1.000000
207 1 260.996643 253.835965 260.996643 253.835965 0.000000 0.000000 1.000000 1.000000 1.000000
208 1 62.222824 96.433879 62.222824 96.433879 -0.000000 0.000000 1.000000 1.000000 1.000000
209 1 33.307381 77.016300 33.307381 77.016300 -0.000000 -0.000000 1.000000 1.000000 1.000000
210 1 205.194447 256.467058 205.194447 256.467058 0.000000 0.000000 1.000000 1.000000 1.000000
211 1 234.226770 189.903660 234.226770 189.903660 0.000000 -0.000000 1.000000 1.000000 1.000000
212 1 44.999072 247.357408 44.999072 247.357408 -0.000000 -0.000000 1.000000 1.000000 1.000000
213 1 43.827331 218.653240 43.827331 218.653240 0.000000 0.000000 1.000000 1.000000 1.000000
214 1 234.284814 61.361165 234.284814 61.361165 -0.000000 0.000000 1.000000 1.000000 1.000000
215 1 173.468415 104.126500 173.468415 104.126500 0.000000 -0.000000 1.000000 1.000000 1.000000
216 1 284.162369 72.344332 284.162369 72.344332 0.000000 -0.000000 1.000000 1.000000 1.000000
217 1 251.343573 159.642844 251.343573 159.642844 0.000000 -0.000000 1.000000 1.000000 1.000000
218 1 231.925235 260.051647 231.925235 260.051647 -0.000000 0.000000 1.000000 1.000000 1.000000
219 1 22.990112 81.491309 22.990112 81.491309 0.000000 -0.000000 1.000000 1.000000 1.000000
220 1 26.099701 292.960848 26.099701 -15.442211 -0.000000 0.000000 1.000000 1.000000 1.000000
221 1 96.546810 168.915268 96.546810 168.915268 -0.000000 -0.000000 1.000000 1.000000 1.000000
222 1 86.673559 163.584940 86.673559 163.584940 -0.000000 0.000000 1.000000 1.000000 1.000000
223 1 19.331428 298.864281 19.331428 -9.538778 0.000000 -0.000000 1.000000 1.000000 1.000000
224 1 175.154989 100.800260 175.154989 100.800260 -0.000000 -0.000000 1.000000 1.000000 1.000000
225 1 180.676761 117.468807 180.676761 117.468807 -0.000000 -0.000000 1.000000 1.000000 1.000000
226 1 12.420150 156.952092 320.823209 156.952092 -0.000000 -0.000000 1.000000 1.000000 1.000000
227 1 86.619361 186.364662 86.619361 186.364662 0.000000 -0.000000 1.000000 1.000000 1.000000
228 1 121.749038 226.621674 121.749038 226.621674 0.000000 0.000000 1.000000 1.000000 1.000000
229 1 153.118214 49.436797 153.118214 49.436797 -0.000000 -0.000000 1.000000 1.000000 1.000000
230 1 278.959164 33.622721 278.959164 33.622721 0.000000 0.000000 1.000000 1.000000 1.000000
231 1 269.453833 113.399379 269.453833 113.399379 -0.000000 -0.000000 1.000000 1.000000 1.000000
232 1 177.266003 150.471837 177.266003 150.471837 0.000000 -0.000000 1.000000 1.000000 1.000000
233 1 33.670159 146.982226 33.670159 146.982226 -0.000000 0.000000 1.000000 1.000000 1.000000
234 1 220.481558 236.471089 220.481558 236.471089 -0.000000 -0.000000 1.000000 1.000000 1.000000
235 1 72.144675 44.045866 72.144675 44.045866 -0.000000 0.000000 1.000000 1.000000 1.000000
236 1 99.141386 34.508267 99.141386 34.508267 0.000000 -0.000000 1.000000 1.000000 1.000000
237 1 39.275280 39.826239 39.275280 39.826239 0.000000 0.000000 1.000000 1.000000 1.000000
238 1 224.885311 213.621678 224.885311 213.621678 -0.000000 0.000000 1.000000 1.000000 1.000000
239 1 78.230726 180.072120 78.230726 180.072120 -0.000000 -0.000000 1.000000 1.000000 1.000000
240 1 286.691253 61.612927 286.691253 61.612927 -0.000000 0.000000 1.000000 1.000000 1.000000
241 1 172.405256 83.976933 172.405256 83.976933 -0.000000 -0.000000 1.000000 1.000000 1.000000
242 1 200.073933 17.406213 200.073933 17.406213 -0.000000 0.000000 1.000000 1.000000 1.000000
243 1 194.719950 308.012878 194.719950 -0.390181 0.000000 -0.000000 1.000000 1.000000 1.000000
244 1 9.540859 16.028658 317.943918 16.028658 0.000000 0.000000 1.000000 1.000000 1.000000
245 1 160.973635 307.415836 160.973635 -0.987223 -0.000000 -0.000000 1.000000 1.000000 1.000000
246 1 113.406473 187.190465 113.406473 187.190465 0.000000 0.000000 1.000000 1.000000 1.000000
247 1 3.331329 254.666966 311.734388 254.666966 0.000000 -0.000000 1.000000 1.000000 1.000000
248 1 115.982154 113.325561 115.982154 113.325561 -0.000000 -0.000000 1.000000 1.000000 1.000000
249 1 150.504941 207.464168 150.504941 207.464168 0.000000 0.000000 1.000000 1.000000 1.000000
250 1 39.329671 92.049548 39.329671 92.049548 -0.000000 0.000000 1.000000 1.000000 1.000000
251 1 54.559405 298.294881 54.559405 298.294881 -0.000000 0.000000 1.000000 1.000000 1.000000
252 1 160.762142 114.469421 160.762142 114.469421 -0.000000 -0.000000 1.000000 1.000000 1.000000
253 1 99.584416 209.781166 99.584416 209.781166 -0.000000 -0.000000 1.000000 1.000000 1.000000
254 1 139.033275 235.614612 139.033275 235.614612 -0.000000 0.000000 1.000000 1.000000 1.000000
255 1 156.455024 127.568661 156.455024 127.568661 -0.000000 0.000000 1.000000 1.000000 1.000000
256 1 229.027462 96.204405 229.027462 96.204405 0.000000 0.000000 1.000000 1.000000 1.000000
257 1 170.873776 122.409719 170.873776 122.409719 0.000000 -0.000000 1.000000 1.000000 1.000000
258 1 257.733109 62.057812 257.733109 62.057812 0.000000 -0.000000 1.000000 1.000000 1.000000
259 1 37.767044 94.788615 37.767044 94.788615 -0.000000 0.000000 1.000000 1.000000 1.000000
260 1 260.167130 263.878081 260.167130 263.878081 0.000000 -0.000000 1.000000 1.000000 1.000000
261 1 182.083369 289.130993 182.083369 -19.272066 -0.000000 0.000000 1.000000 1.000000 1.000000
262 1 285.863294 278.120246 285.863294 278.120246 0.000000 0.000000 1.000000 1.000000 1.000000
263 1 235.358055 306.151374 235.358055 306.151374 0.000000 -0.000000 1.000000 1.000000 1.000000
264 1 10.453929 202.692125 10.453929 202.692125 -0.000000 -0.000000 1.000000 1.000000 1.000000
265 1 291.892128 127.620523 291.892128 127.620523 -0.000000 0.000000 1.000000 1.000000 1.000000
266 1 217.803442 173.924837 217.803442 173.924837 0.000000 0.000000 1.000000 1.000000 1.000000
267 1 29.095940 8.429056 29.095940 8.429056 -0.000000 0.000000 1.000000 1.000000 1.000000
268 1 36.062972 207.368459 36.062972 207.368459 0.000000 -0.000000 1.000000 1.000000 1.000000
269 1 106.056079 167.205670 106.056079 167.205670 -0.000000 -0.000000 1.000000 1.000000 1.000000
270 1 266.991281 148.790309 266.991281 148.790309 0.000000 0.000000 1.000000 1.000000 1.000000
271 1 4.829510 87.068004 313.232569 87.068004 -0.000000 -0.000000 1.000000 1.000000 1.000000
272 1 172.269809 257.779811 172.269809 257.779811 -0.000000 0.000000 1.000000 1.000000 1.000000
273 1 223.425507 265.116956 223.425507 265.116956 -0.000000 -0.000000 1.000000 1.000000 1.000000
274 1 147.134088 215.545199 147.134088 215.545199 -0.000000 0.000000 1.000000 1.000000 1.000000
275 1 273.644811 242.317235 273.644811 242.317235 -0.000000 0.000000 1.000000 1.000000 1.000000
276 1 223.985361 152.869137 223.985361 152.869137 -0.000000 -0.000000 1.000000 1.000000 1.000000
277 1 169.021829 96.145365 169.021829 96.145365 -0.000000 0.000000 1.000000 1.000000 1.000000
278 1 49.846518 213.951988 49.846518 213.951988 0.000000 0.000000 1.000000 1.000000 1.000000
279 1 277.397080 62.317535 277.397080 62.317535 -0.000000 -0.000000 1.000000 1.000000 1.000000
280 1 76.328392 34.873205 76.328392 34.873205 -0.000000 0.000000 1.000000 1.000000 1.000000
281 1 96.115046 306.241726 96.115046 -2.161333 0.000000 -0.000000 1.000000 1.000000 1.000000
282 1 62.883934 155.004274 62.883934 155.004274 0.000000 -0.000000 1.000000 1.000000 1.000000
283 1 203.106633 285.343416 203.106633 285.343416 0.000000 0.000000 1.000000 1.000000 1.000000
284 1 297.107428 107.107740 -11.295631 107.107740 0.000000 0.000000 1.000000 1.000000 1.000000
285 1 113.262312 91.756164 113.262312 91.756164 -0.000000 -0.000000 1.000000 1.000000 1.000000
286 1 112.446262 198.089967 112.446262 198.089967 -0.000000 0.000000 1.000000 1.000000 1.000000
287 1 12.542684 186.028773 12.542684 186.028773 -0.000000 0.000000 1.000000 1.000000 1.000000
288 1 211.335486 183.990728 211.335486 183.990728 0.000000 -0.000000 1.000000 1.000000 1.000000
289 1 195.745826 252.652998 195.745826 252.652998 0.000000 0.000000 1.000000 1.000000 1.000000
290 1 87.032568 22.101320 87.032568 22.101320 0.000000 -0.000000 1.000000 1.000000 1.000000
291 1 83.781473 99.189117 83.781473 99.189117 0.000000 0.000000 1.000000 1.000000 1.000000
292 1 144.218485 28.803532 144.218485 28.803532 -0.000000 -0.000000 1.000000 1.000000 1.000000
293 1 270.722891 160.078439 270.722891 160.078439 0.000000 -0.000000 1.000000 1.000000 1.000000
294 1 283.161728 184.915567 283.161728 184.915567 -0.000000 0.000000 1.000000 1.000000 1.000000
295 1 213.316548 126.444717 213.316548 126.444717 -0.000000 0.000000 1.000000 1.000000 1.000000
296 1 287.650475 263.492720 287.650475 263.492720 -0.000000 0.000000 1.000000 1.000000 1.000000
297 1 199.504976 59.350256 199.504976 59.350256 0.000000 0.000000 1.000000 1.000000 1.000000
298 1 195.114012 235.403154 195.114012 235.403154 -0.000000 -0.000000 1.000000 1.000000 1.000000
299 1 139.586976 294.820993 139.586976 294.820993 0.000000 -0.000000 1.000000 1.000000 1.000000
300 1 146.358750 5.739254 146.358750 5.739254 -0.000000 0.000000 1.000000 1.000000 1.000000
301 1 155.664877 147.820642 155.664877 147.820642 0.000000 -0.000000 1.000000 1.000000 1.000000
302 1 202.634608 243.994497 202.634608 243.994497 -0.000000 0.000000 1.000000 1.000000 1.000000
303 1 165.345461 113.755025 165.345461 113.755025 0.000000 0.000000 1.000000 1.000000 1.000000
304 1 271.200776 244.436074 271.200776 244.436074 0.000000 0.000000 1.000000 1.000000 1.000000
305 1 203.697191 66.074733 203.697191 66.074733 -0.000000 0.000000 1.000000 1.000000 1.000000
306 1 291.642571 34.602948 291.642571 34.602948 -0.000000 0.000000 1.000000 1.000000 1.000000
307 1 146.934540 156.649157 146.934540 156.649157 -0.000000 -0.000000 1.000000 1.000000 1.000000
308 1 261.297492 237.583969 261.297492 237.583969 -0.000000 -0.000000 1.000000 1.000000 1.000000
309 1 269.457369 13.328284 269.457369 13.328284 -0.000000 0.000000 1.000000 1.000000 1.000000
310 1 38.612374 48.142607 38.612374 48.142607 0.000000 0.000000 1.000000 1.000000 1.000000
311 1 266.169883 74.354715 266.169883 74.354715 0.000000 -0.000000 1.000000 1.000000 1.000000
312 1 280.080941 221.907029 280.080941 221.907029 0.000000 -0.000000 1.000000 1.000000 1.000000
313 1 230.891853 63.296655 230.891853 63.296655 0.000000 0.000000 1.000000 1.000000 1.000000
314 1 0.674748 67.047804 309.077807 67.047804 0.000000 0.000000 1.000000 1.000000 1.000000
315 1 14.508982 75.651672 14.508982 75.651672 -0.000000 0.000000 1.000000 1.000000 1.000000