ITEM: TIMESTEP
1300.000000
ITEM: NUMBER OF ATOMS
5000
ITEM: BOX BOUNDS xy xz yz
0 212.771847 0
0 212.771847 0
0 2 0
ITEM: ATOMS id type x y xu yu vx vy radius m z
0 1 72.951888 78.084195 72.951888 78.084195 -0.000000 0.000000 1.000000 1.000000 1.000000
1 1 140.070882 56.339229 140.070882 56.339229 -0.000000 -0.000000 1.000000 1.000000 1.000000
2 1 117.919703 162.345922 117.919703 162.345922 -0.000000 0.000000 1.000000 1.000000 1.000000
3 1 122.419400 54.484992 122.419400 54.484992 -0.000000 -0.000000 1.000000 1.000000 1.000000
4 1 26.335912 29.230283 26.335912 29.230283 0.000000 -0.000000 1.000000 1.000000 1.000000
5 1 149.333339 104.849342 149.333339 104.849342 -0.000000 -0.000000 1.000000 1.000000 1.000000
6 1 176.942750 42.888872 176.942750 42.888872 0.000000 0.000000 1.000000 1.000000 1.000000
7 1 21.723321 9.659484 21.723321 9.659484 0.000000 0.000000 1.000000 1.000000 1.000000
8 1 34.242552 131.546001 34.242552 131.546001 0.000000 -0.000000 1.000000 1.000000 1.000000
9 1 24.075357 168.736913 24.075357 168.736913 0.000000 0.000000 1.000000 1.000000 1.000000
10 1 97.018306 186.341705 97.018306 186.341705 0.000000 0.000000 1.000000 1.000000 1.000000
11 1 207.436495 127.197721 207.436495 127.197721 0.000000 0.000000 1.000000 1.000000 1.000000
12 1 146.123624 143.929867 146.123624 143.929867 -0.000000 -0.000000 1.000000 1.000000 1.000000
13 1 124.766450 180.342226 124.766450 180.342226 0.000000 0.000000 1.000000 1.000000 1.000000
14 1 121.602483 85.313753 121.602483 85.313753 0.000000 -0.000000 1.000000 1.000000 1.000000
15 1 25.013236 190.528720 25.013236 190.528720 -0.000000 -0.000000 1.000000 1.000000 1.000000
16 1 11.963195 4.675092 11.963195 4.675092 -0.000000 -0.000000 1.000000 1.000000 1.000000
17 1 174.674883 91.629786 174.674883 91.629786 -0.000000 0.000000 1.000000 1.000000 1.000000
18 1 92.450452 163.596943 92.450452 163.596943 -0.000000 -0.000000 1.000000 1.000000 1.000000
19 1 84.083470 149.586965 84.083470 149.586965 -0.000000 -0.000000 1.000000 1.000000 1.000000
20 1 31.081413 191.598407 31.081413 191.598407 0.000000 0.000000 1.000000 1.000000 1.000000
21 1 7.131101 86.444257 7.131101 86.444257 -0.000000 0.000000 1.000000 1.000000 1.000000
22 1 37.332975 152.911312 37.332975 152.911312 -0.000000 -0.000000 1.000000 1.000000 1.000000
23 1 18.253138 167.958791 18.253138 167.958791 -0.000000 0.000000 1.000000 1.000000 1.000000
24 1 65.106777 140.921268 65.106777 140.921268 -0.000000 -0.000000 1.000000 1.000000 1.000000
25 1 18.047553 55.644040 18.047553 55.644040 -0.000000 0.000000 1.000000 1.000000 1.000000
26 1 189.430134 87.700791 189.430134 87.700791 -0.000000 0.000000 1.000000 1.000000 1.000000
27 1 76.878743 43.142411 76.878743 43.142411 0.000000 0.000000 1.000000 1.000000 1.000000
28 1 68.033127 18.178478 68.033127 18.178478 0.000000 0.000000 1.000000 1.000000 1.000000
29 1 120.661775 140.972131 120.661775 140.972131 -0.000000 0.000000 1.000000 1.000000 1.000000
30 1 63.167860 118.443789 63.167860 118.443789 0.000000 0.000000 1.000000 1.000000 1.000000
31 1 46.873352 0.670168 46.873352 0.670168 -0.000000 0.000000 1.000000 1.000000 1.000000
32 1 29.309689 42.694173 29.309689 42.694173 -0.000000 -0.000000 1.000000 1.000000 1.000000
33 1 202.158132 65.761009 202.158132 65.761009 0.000000 -0.000000 1.000000 1.000000 1.000000
34 1 173.205676 48.743731 173.205676 48.743731 -0.000000 0.000000 1.000000 1.000000 1.000000
35 1 137.391726 177.337951 137.391726 177.337951 -0.000000 0.000000 1.000000 1.000000 1.000000
36 1 59.791313 37.659156 59.791313 37.659156 0.000000 0.000000 1.000000 1.000000 1.000000
37 1 97.742479 103.702146 97.742479 103.702146 -0.000000 0.000000 1.000000 1.000000 1.000000
38 1 61.613910 186.219114 61.613910 186.219114 0.000000 0.000000 1.000000 1.000000 1.000000
39 1 5.310718 168.998300 5.310718 168.998300 0.000000 0.000000 1.000000 1.000000 1.000000
40 1 179.064156 163.020109 179.064156 163.020109 0.000000 -0.000000 1.000000 1.000000 1.000000
41 1 136.362655 137.952704 136.362655 137.952704 0.000000 0.000000 1.000000 1.000000 1.000000
42 1 196.481977 1.462915 196.481977 214.234762 -0.000000 0.000000 1.000000 1.000000 1.000000
43 1 100.472695 159.055486 100.472695 159.055486 0.000000 0.000000 1.000000 1.000000 1.000000
44 1 115.779742 50.130051 115.779742 50.130051 -0.000000 0.000000 1.000000 1.000000 1.000000
45 1 130.247101 193.204740 130.247101 193.204740 0.000000 0.000000 1.000000 1.000000 1.000000
46 1 2.639585 45.214130 2.639585 45.214130 0.000000 0.000000 1.000000 1.000000 1.000000
47 1 157.160539 113.650654 157.160539 113.650654 0.000000 0.000000 1.000000 1.000000 1.000000
48 1 192.824856 34.895265 192.824856 34.895265 -0.000000 0.000000 1.000000 1.000000 1.000000
49 1 202.752727 52.539981 202.752727 52.539981 0.000000 0.000000 1.000000 1.000000 1.000000
50 1 192.176659 67.561753 192.176659 67.561753 0.000000 -0.000000 1.000000 1.000000 1.000000
51 1 126.123854 57.315755 126.123854 57.315755 0.000000 0.000000 1.000000 1.000000 1.000000
52 1 119.352455 47.789401 119.352455 47.789401 -0.000000 -0.000000 1.000000 1.000000 1.000000
53 1 62.016084 105.025423 62.016084 105.025423 -0.000000 0.000000 1.000000 1.000000 1.000000
54 1 34.606143 196.148721 34.606143 196.148721 0.000000 0.000000 1.000000 1.000000 1.000000
55 1 170.058828 165.902245 170.058828 165.902245 0.000000 -0.000000 1.000000 1.000000 1.000000
56 1 204.699491 196.590358 204.699491 196.590358 0.000000 -0.000000 1.000000 1.000000 1.000000
57 1 37.019420 40.624990 37.019420 40.624990 0.000000 0.000000 1.000000 1.000000 1.000000
58 1 96.669511 44.122057 96.669511 44.122057 -0.000000 0.000000 1.000000 1.000000 1.000000
59 1 180.072383 10.862995 180.072383 10.862995 -0.000000 -0.000000 1.000000 1.000000 1.000000
60 1 23.314773 11.064216 23.314773 11.064216 0.000000 -0.000000 1.000000 1.000000 1.000000
61 1 136.503702 130.920600 136.503702 130.920600 0.000000 0.000000 1.000000 1.000000 1.000000
62 1 32.527286 175.038053 32.527286 175.038053 0.000000 0.000000 1.000000 1.000000 1.000000
63 1 142.559241 5.243106 142.559241 5.243106 -0.000000 0.000000 1.000000 1.000000 1.000000
64 1 88.341133 143.563409 88.341133 143.563409 0.000000 -0.000000 1.000000 1.000000 1.000000
65 1 146.012920 182.856379 146.012920 182.856379 -0.000000 -0.000000 1.000000 1.000000 1.000000
66 1 162.163028 44.590082 162.163028 44.590082 -0.000000 -0.000000 1.000000 1.000000 1.000000
67 1 168.116939 47.804332 168.116939 47.804332 -0.000000 0.000000 1.000000 1.000000 1.000000
68 1 93.347970 97.481391 93.347970 97.481391 0.000000 -0.000000 1.000000 1.000000 1.000000
69 1 44.335051 28.832719 44.335051 28.832719 0.000000 -0.000000 1.000000 1.000000 1.000000
70 1 101.716076 41.414447 101.716076 41.414447 0.000000 0.000000 1.000000 1.000000 1.000000
71 1 64.292886 170.553215 64.292886 170.553215 -0.000000 -0.000000 1.000000 1.000000 1.000000
72 1 37.108056 189.207005 37.108056 189.207005 0.000000 -0.000000 1.000000 1.000000 1.000000
73 1 130.639635 199.893356 130.639635 199.893356 -0.000000 -0.000000 1.000000 1.000000 1.000000
74 1 60.493191 23.365039 60.493191 23.365039 0.000000 -0.000000 1.000000 1.000000 1.000000
75 1 86.695345 97.258370 86.695345 97.258370 -0.000000 0.000000 1.000000 1.000000 1.000000
76 1 135.651635 111.636983 135.651635 111.636983 0.000000 -0.000000 1.000000 1.000000 1.000000
77 1 82.998183 181.422973 82.998183 181.422973 -0.000000 0.000000 1.000000 1.000000 1.000000
78 1 152.798331 0.773931 152.798331 213.545778 -0.000000 0.000000 1.000000 1.000000 1.000000
79 1 156.816246 186.081562 156.816246 186.081562 -0.000000 -0.000000 1.000000 1.000000 1.000000
80 1 177.089870 84.089692 177.089870 84.089692 0.000000 -0.000000 1.000000 1.000000 1.000000
81 1 118.898899 205.284974 118.898899 205.284974 -0.000000 -0.000000 1.000000 1.000000 1.000000
82 1 108.925429 68.985169 108.925429 68.985169 -0.000000 -0.000000 1.000000 1.000000 1.000000
83 1 195.095979 154.057336 195.095979 154.057336 0.000000 0.000000 1.000000 1.000000 1.000000
84 1 39.297778 7.971908 39.297778 7.971908 -0.000000 -0.000000 1.000000 1.000000 1.000000
85 1 73.091646 31.317932 73.091646 31.317932 0.000000 0.000000 1.000000 1.000000 1.000000
86 1 113.493522 119.010035 113.493522 119.010035 0.000000 0.000000 1.000000 1.000000 1.000000
87 1 147.464801 63.142054 147.464801 63.142054 0.000000 0.000000 1.000000 1.000000 1.000000
88 1 116.382645 144.121135 116.382645 144.121135 0.000000 0.000000 1.000000 1.000000 1.000000
89 1 101.280440 165.395695 101.280440 165.395695 0.000000 -0.000000 1.000000 1.000000 1.000000
90 1 179.082470 116.839516 179.082470 116.839516 0.000000 0.000000 1.000000 1.000000 1.000000
91 1 152.258781 169.835297 152.258781 169.835297 -0.000000 -0.000000 1.000000 1.000000 1.000000
92 1 68.170259 160.329618 68.170259 160.329618 0.000000 0.000000 1.000000 1.000000 1.000000
93 1 2.265456 137.046093 215.037303 137.046093 0.000000 0.000000 1.000000 1.000000 1.000000
94 1 172.305982 177.749725 172.305982 177.749725 -0.000000 0.000000 1.000000 1.000000 1.000000
95 1 118.591011 53.006629 118.591011 53.006629 0.000000 -0.000000 1.000000 1.000000 1.000000
96 1 45.347289 14.427120 45.347289 14.427120 -0.000000 0.000000 1.000000 1.000000 1.000000
97 1 212.476434 96.142109 212.476434 96.142109 0.000000 -0.000000 1.000000 1.000000 1.000000
98 1 40.183198 43.201448 40.183198 43.201448 0.000000 0.000000 1.000000 1.000000 1.000000
99 1 186.666262 1.661655 186.666262 214.433502 -0.000000 0.000000 1.000000 1.000000 1.000000
100 1 35.509702 36.886049 35.509702 36.886049 -0.000000 0.000000 1.000000 1.000000 1.000000
101 1 149.939991 93.974249 149.939991 93.974249 -0.000000 0.000000 1.000000 1.000000 1.000000
102 1 169.265729 57.010375 169.265729 57.010375 -0.000000 -0.000000 1.000000 1.000000 1.000000
103 1 71.645722 42.675162 71.645722 42.675162 -0.000000 0.000000 1.000000 1.000000 1.000000
104 1 89.447661 2.397089 89.447661 215.168936 -0.000000 0.000000 1.000000 1.000000 1.000000
105 1 107.364116 126.461777 107.364116 126.461777 0.000000 0.000000 1.000000 1.000000 1.000000
106 1 63.769653 83.342232 63.769653 83.342232 -0.000000 0.000000 1.000000 1.000000 1.000000
107 1 174.427763 139.771588 174.427763 139.771588 -0.000000 0.000000 1.000000 1.000000 1.000000
108 1 79.987138 58.360419 79.987138 58.360419 -0.000000 -0.000000 1.000000 1.000000 1.000000
109 1 154.648693 147.232173 154.648693 147.232173 0.000000 0.000000 1.000000 1.000000 1.000000
110 1 38.247657 5.098080 38.247657 217.869927 0.000000 -0.000000 1.000000 1.000000 1.000000
111 1 6.593251 185.234032 6.593251 185.234032 0.000000 0.000000 1.000000 1.000000 1.000000
112 1 32.535737 154.036671 32.535737 154.036671 -0.000000 0.000000 1.000000 1.000000 1.000000
113 1 205.046711 183.334395 205.046711 183.334395 0.000000 0.000000 1.000000 1.000000 1.000000
114 1 92.985635 26.091474 92.985635 26.091474 -0.000000 0.000000 1.000000 1.000000 1.000000
115 1 71.890716 198.743169 71.890716 198.743169 -0.000000 0.000000 1.000000 1.000000 1.000000
116 1 123.019781 92.472639 123.019781 92.472639 0.000000 0.000000 1.000000 1.000000 1.000000
117 1 74.332419 108.242133 74.332419 108.242133 -0.000000 -0.000000 1.000000 1.000000 1.000000
118 1 139.773976 195.702333 139.773976 195.702333 0.000000 -0.000000 1.000000 1.000000 1.000000
119 1 208.413287 120.549033 208.413287 120.549033 -0.000000 -0.000000 1.000000 1.000000 1.000000
120 1 158.124330 129.707294 158.124330 129.707294 0.000000 0.000000 1.000000 1.000000 1.000000
121 1 161.254890 57.637709 161.254890 57.637709 0.000000 0.000000 1.000000 1.000000 1.000000
122 1 65.554403 160.530608 65.554403 160.530608 -0.000000 -0.000000 1.000000 1.000000 1.000000
123 1 212.705835 174.635545 -0.066012 174.635545 0.000000 -0.000000 1.000000 1.000000 1.000000
124 1 92.463356 211.267119 92.463356 -1.504728 -0.000000 -0.000000 1.000000 1.000000 1.000000
125 1 18.618209 90.144688 18.618209 90.144688 -0.000000 0.000000 1.000000 1.000000 1.000000
126 1 51.272471 114.791096 51.272471 114.791096 -0.000000 -0.000000 1.000000 1.000000 1.000000
127 1 136.658373 101.732367 136.658373 101.732367 -0.000000 -0.000000 1.000000 1.000000 1.000000
128 1 91.815106 4.262142 91.815106 4.262142 0.000000 -0.000000 1.000000 1.000000 1.000000
129 1 1.761488 74.858721 1.761488 74.858721 0.000000 -0.000000 1.000000 1.000000 1.000000
130 1 94.562915 133.548040 94.562915 133.548040 0.000000 0.000000 1.000000 1.000000 1.000000
131 1 74.912768 52.125021 74.912768 52.125021 0.000000 0.000000 1.000000 1.000000 1.000000
132 1 115.918653 162.514116 115.918653 162.514116 0.000000 -0.000000 1.000000 1.000000 1.000000
133 1 6.533747 181.249625 6.533747 181.249625 -0.000000 -0.000000 1.000000 1.000000 1.000000
134 1 138.655399 180.106261 138.655399 180.106261 0.000000 -0.000000 1.000000 1.000000 1.000000
135 1 31.532974 65.191983 31.532974 65.191983 0.000000 0.000000 1.000000 1.000000 1.000000
136 1 118.216875 188.433513 118.216875 188.433513 0.000000 0.000000 1.000000 1.000000 1.000000
137 1 5.819226 155.857821 218.591073 155.857821 -0.000000 -0.000000 1.000000 1.000000 1.000000
138 1 25.566420 197.159986 25.566420 197.159986 0.000000 0.000000 1.000000 1.000000 1.000000
139 1 137.462894 152.585686 137.462894 152.585686 -0.000000 -0.000000 1.000000 1.000000 1.000000
140 1 179.264268 200.943002 179.264268 200.943002 0.000000 -0.000000 1.000000 1.000000 1.000000
141 1 119.887516 163.136997 119.887516 163.136997 0.000000 0.000000 1.000000 1.000000 1.000000
142 1 174.159885 130.415421 174.159885 130.415421 0.000000 -0.000000 1.000000 1.000000 1.000000
143 1 6.733102 100.604407 6.733102 100.604407 -0.000000 -0.000000 1.000000 1.000000 1.000000
144 1 206.062776 58.236294 206.062776 58.236294 -0.000000 0.000000 1.000000 1.000000 1.000000
145 1 174.847222 157.049997 174.847222 157.049997 -0.000000 0.000000 1.000000 1.000000 1.000000
146 1 154.624115 168.046132 154.624115 168.046132 0.000000 0.000000 1.000000 1.000000 1.000000
147 1 37.907210 32.785743 37.907210 32.785743 -0.000000 0.000000 1.000000 1.000000 1.000000
148 1 77.732142 24.763370 77.732142 24.763370 0.000000 -0.000000 1.000000 1.000000 1.000000
149 1 191.976879 185.035458 191.976879 185.035458 0.000000 0.000000 1.000000 1.000000 1.000000
150 1 92.842565 157.813527 92.842565 157.813527 -0.000000 0.000000 1.000000 1.000000 1.000000
151 1 41.572271 87.303024 41.572271 87.303024 -0.000000 0.000000 1.000000 1.000000 1.000000
152 1 132.176206 85.881738 132.176206 85.881738 0.000000 0.000000 1.000000 1.000000 1.000000
153 1 10.465398 20.098527 10.465398 20.098527 -0.000000 0.000000 1.000000 1.000000 1.000000
154 1 135.290587 75.980547 135.290587 75.980547 0.000000 0.000000 1.000000 1.000000 1.000000
155 1 186.111983 12.569344 186.111983 12.569344 -0.000000 0.000000 1.000000 1.000000 1.000000
156 1 181.106230 138.868703 181.106230 138.868703 0.000000 0.000000 1.000000 1.000000 1.000000
157 1 68.387346 65.804537 68.387346 65.804537 -0.000000 -0.000000 1.000000 1.000000 1.000000
158 1 114.452907 193.294981 114.452907 193.294981 0.000000 0.000000 1.000000 1.000000 1.000000
159 1 38.219530 118.566566 38.219530 118.566566 -0.000000 0.000000 1.000000 1.000000 1.000000
160 1 0.285701 44.170326 213.057548 44.170326 0.000000 0.000000 1.000000 1.000000 1.000000
161 1 105.094399 180.053266 105.094399 180.053266 0.000000 -0.000000 1.000000 1.000000 1.000000
162 1 22.002638 79.215523 22.002638 79.215523 -0.000000 0.000000 1.000000 1.000000 1.000000
163 1 170.568378 137.801276 170.568378 137.801276 0.000000 -0.000000 1.000000 1.000000 1.000000
164 1 105.420750 70.981115 105.420750 70.981115 -0.000000 -0.000000 1.000000 1.000000 1.000000
165 1 17.978971 110.550133 17.978971 110.550133 -0.000000 -0.000000 1.000000 1.000000 1.000000
166 1 182.889579 62.718905 182.889579 62.718905 0.000000 -0.000000 1.000000 1.000000 1.000000
167 1 91.088209 102.686841 91.088209 102.686841 0.000000 0.000000 1.000000 1.000000 1.000000
168 1 90.770434 122.135989 90.770434 122.135989 -0.000000 0.000000 1.000000 1.000000 1.000000
169 1 64.000495 15.517823 64.000495 15.517823 0.000000 0.000000 1.000000 1.000000 1.000000
170 1 74.575622 62.355945 74.575622 62.355945 0.000000 0.000000 1.000000 1.000000 1.000000
171 1 52.940756 68.913295 52.940756 68.913295 0.000000 -0.000000 1.000000 1.000000 1.000000
172 1 119.491482 159.891063 119.491482 159.891063 -0.000000 -0.000000 1.000000 1.000000 1.000000
173 1 142.655263 130.929660 142.655263 130.929660 -0.000000 -0.000000 1.000000 1.000000 1.000000
174 1 23.010471 92.047638 23.010471 92.047638 -0.000000 0.000000 1.000000 1.000000 1.000000
175 1 54.413809 140.708312 54.413809 140.708312 0.000000 -0.000000 1.000000 1.000000 1.000000
176 1 81.954067 21.819316 81.954067 21.819316 -0.000000 -0.000000 1.000000 1.000000 1.000000
177 1 208.162058 136.398417 208.162058 136.398417 0.000000 -0.000000 1.000000 1.000000 1.000000
178 1 170.814689 191.680476 170.814689 191.680476 0.000000 -0.000000 1.000000 1.000000 1.000000
179 1 178.815637 44.387264 178.815637 44.387264 -0.000000 -0.000000 1.000000 1.000000 1.000000
180 1 185.968060 69.022738 185.968060 69.022738 0.000000 0.000000 1.000000 1.000000 1.000000
181 1 8.920154 25.235736 221.692001 25.235736 -0.000000 0.000000 1.000000 1.000000 1.000000
182 1 163.442355 96.793517 163.442355 96.793517 0.000000 -0.000000 1.000000 1.000000 1.000000
183 1 6.403714 166.277431 6.403714 166.277431 -0.000000 0.000000 1.000000 1.000000 1.000000
184 1 17.651504 132.960066 17.651504 132.960066 0.000000 -0.000000 1.000000 1.000000 1.000000
185 1 154.391602 87.634212 154.391602 87.634212 -0.000000 0.000000 1.000000 1.000000 1.000000
186 1 167.340813 152.517931 167.340813 152.517931 -0.000000 0.000000 1.000000 1.000000 1.000000
187 1 99.032476 41.639167 99.032476 41.639167 -0.000000 0.000000 1.000000 1.000000 1.000000
188 1 126.046997 75.382472 126.046997 75.382472 0.000000 0.000000 1.000000 1.000000 1.000000
189 1 75.055985 194.375476 75.055985 194.375476 0.000000 0.000000 1.000000 1.000000 1.000000
190 1 131.823580 129.201019 131.823580 129.201019 -0.000000 0.000000 1.000000 1.000000 1.000000
191 1 144.987033 126.294809 144.987033 126.294809 -0.000000 0.000000 1.000000 1.000000 1.000000
192 1 88.694725 164.468825 88.694725 164.468825 0.000000 0.000000 1.000000 1.000000 1.000000
193 1 94.572068 52.049348 94.572068 52.049348 -0.000000 0.000000 1.000000 1.000000 1.000000
194 1 165.803124 109.834755 165.803124 109.834755 -0.000000 -0.000000 1.000000 1.000000 1.000000
195 1 190.931581 166.044256 190.931581 166.044256 0.000000 -0.000000 1.000000 1.000000 1.000000
196 1 27.370907 41.892776 27.370907 41.892776 0.000000 0.000000 1.000000 1.000000 1.000000
197 1 146.732488 10.306656 146.732488 10.306656 -0.000000 0.000000 1.000000 1.000000 1.000000
198 1 150.561879 37.560486 150.561879 37.560486 0.000000 -0.000000 1.000000 1.000000 1.000000
199 1 206.405695 134.284391 -6.366152 134.284391 -0.000000 0.000000 1.000000 1.000000 1.000000
200 1 210.458624 55.340132 -2.313223 55.340132 -0.000000 -0.000000 1.000000 1.000000 1.000000
201 1 57.573080 113.845711 57.573080 113.845711 -0.000000 0.000000 1.000000 1.000000 1.000000
202 1 44.982525 50.091246 44.982525 50.091246 0.000000 0.000000 1.000000 1.000000 1.000000
203 1 38.670967 15.409045 38.670967 15.409045 0.000000 -0.000000 1.000000 1.000000 1.000000
204 1 26.684056 56.127052 26.684056 56.127052 0.000000 -0.000000 1.000000 1.000000 1.000000
205 1 135.044211 209.699575 135.044211 209.699575 -0.000000 0.000000 1.000000 1.000000 1.000000
206 1 186.011265 53.793112 186.011265 53.793112 0.000000 -0.000000 1.000000 1.000000 1.000000
207 1 82.183240 95.719720 82.183240 95.719720 -0.000000 -0.000000 1.000000 1.000000 1.000000
208 1 163.760032 154.564652 163.760032 154.564652 0.000000 0.000000 1.000000 1.000000 1.000000
209 1 146.324243 58.349182 146.324243 58.349182 0.000000 0.000000 1.000000 1.000000 1.000000
210 1 19.576593 118.951728 19.576593 118.951728 0.000000 0.000000 1.000000 1.000000 1.000000
211 1 132.282399 113.823018 132.282399 113.823018 0.000000 -0.000000 1.000000 1.000000 1.000000
212 1 45.854141 10.958248 45.854141 10.958248 -0.000000 0.000000 1.000000 1.000000 1.000000
213 1 41.647638 99.841149 41.647638 99.841149 -0.000000 0.000000 1.000000 1.000000 1.000000
214 1 49.041413 101.518319 49.041413 101.518319 0.000000 0.000000 1.000000 1.000000 1.000000
215 1 21.992538 95.667307 21.992538 95.667307 -0.000000 0.000000 1.000000 1.000000 1.000000
216 1 109.782197 65.894531 109.782197 65.894531 0.000000 -0.000000 1.000000 1.000000 1.000000
217 1 42.493703 95.502050 42.493703 95.502050 -0.000000 -0.000000 1.000000 1.000000 1.000000
218 1 196.238191 122.120671 196.238191 122.120671 0.000000 0.000001 1.000000 1.000000 1.000000
219 1 192.614896 191.668248 192.614896 191.668248 0.000000 0.000000 1.000000 1.000000 1.000000
220 1 136.961920 208.984098 136.961920 208.984098 0.000000 0.000000 1.000000 1.000000 1.000000
221 1 90.300498 17.350452 90.300498 17.350452 -0.000000 -0.000000 1.000000 1.000000 1.000000
222 1 5.606982 52.986083 218.378829 52.986083 0.000000 0.000000 1.000000 1.000000 1.000000
223 1 5.854353 9.492201 5.854353 9.492201 -0.000000 0.000000 1.000000 1.000000 1.000000
224 1 47.586455 141.899535 47.586455 141.899535 -0.000000 0.000000 1.000000 1.000000 1.000000
225 1 3.341127 60.571759 3.341127 60.571759 -0.000000 -0.000000 1.000000 1.000000 1.000000
226 1 80.429705 85.511998 80.429705 85.511998 -0.000000 0.000000 1.000000 1.000000 1.000000
227 1 54.799608 188.215834 54.799608 188.215834 0.000000 0.000000 1.000000 1.000000 1.000000
228 1 118.163142 142.612374 118.163142 142.612374 0.000000 0.000000 1.000000 1.000000 1.000000
229 1 148.030702 136.994932 148.030702 136.994932 0.000000 -0.000000 1.000000 1.000000 1.000000
230 1 7.973332 36.194087 7.973332 36.194087 0.000000 -0.000000 1.000000 1.000000 1.000000
231 1 19.634422 100.061754 19.634422 100.061754 -0.000000 -0.000000 1.000000 1.000000 1.000000
232 1 15.622496 97.453008 15.622496 97.453008 0.000000 0.000000 1.000000 1.000000 1.000000
233 1 125.744065 175.033669 125.744065 175.033669 -0.000000 -0.000000 1.000000 1.000000 1.000000
234 1 134.035087 0.099362 134.035087 212.871209 0.000000 0.000000 1.000000 1.000000 1.000000
235 1 17.265046 108.460637 17.265046 108.460637 -0.000000 -0.000000 1.000000 1.000000 1.000000
236 1 28.508816 11.584844 28.508816 11.584844 -0.000000 -0.000000 1.000000 1.000000 1.000000
237 1 20.377271 179.696684 20.377271 179.696684 -0.000000 -0.000000 1.000000 1.000000 1.000000
238 1 106.840859 54.283648 106.840859 54.283648 0.000000 0.000000 1.000000 1.000000 1.000000
239 1 120.744136 63.670601 120.744136 63.670601 0.000000 -0.000000 1.000000 1.000000 1.000000
240 1 46.237494 106.408542 46.237494 106.408542 -0.000000 0.000000 1.000000 1.000000 1.000000
241 1 179.167230 29.235681 179.167230 29.235681 0.000000 0.000000 1.000000 1.000000 1.000000
242 1 4.580221 78.438322 217.352068 78.438322 -0.000000 -0.000000 1.000000 1.000000 1.000000
243 1 159.335449 92.237331 159.335449 92.237331 -0.000000 0.000000 1.000000 1.000000 1.000000
244 1 11.308068 14.327944 11.308068 14.327944 -0.000000 -0.000000 1.000000 1.000000 1.000000
245 1 191.084286 41.816133 191.084286 41.816133 -0.000000 -0.000000 1.000000 1.000000 1.000000
246 1 109.865394 151.822976 109.865394 151.822976 0.000000 0.000000 1.000000 1.000000 1.000000
247 1 155.183969 46.579703 155.183969 46.579703 0.000000 -0.000000 1.000000 1.000000 1.000000
248 1 133.975588 135.317157 133.975588 135.317157 -0.000000 -0.000000 1.000000 1.000000 1.000000
249 1 116.631010 100.411652 116.631010 100.411652 -0.000000 -0.000000 1.000000 1.000000 1.000000
250 1 11.962404 195.096732 11.962404 195.096732 0.000000 0.000000 1.000000 1.000000 1.000000
251 1 57.756444 179.850218 57.756444 179.850218 -0.000000 0.000000 1.000000 1.000000 1.000000
252 1 135.307043 127.622362 135.307043 127.622362 -0.000000 -0.000000 1.000000 1.000000 1.000000
253 1 134.472930 141.946369 134.472930 141.946369 0.000000 -0.000000 1.000000 1.000000 1.000000
254 1 55.584977 58.524639 55.584977 58.524639 -0.000000 0.000000 1.000000 1.000000 1.000000
255 1 113.743384 111.014551 113.743384 111.014551 0.000000 0.000000 1.000000 1.000000 1.000000
256 1 30.360005 129.261961 30.360005 129.261961 0.000000 0.000000 1.000000 1.000000 1.000000
257 1 43.093492 180.572317 43.093492 180.572317 0.000000 0.000000 1.000000 1.000000 1.000000
258 1 24.407451 60.337469 24.407451 60.337469 0.000000 -0.000000 1.000000 1.000000 1.000000
259 1 26.082622 6.221687 26.082622 6.221687 0.000000 -0.000000 1.000000 1.000000 1.000000
260 1 21.000509 50.672868 21.000509 50.672868 0.000000 0.000000 1.000000 1.000000 1.000000
261 1 141.839235 26.282239 141.839235 26.282239 0.000000 0.000000 1.000000 1.000000 1.000000
262 1 95.194150 167.736554 95.194150 167.736554 0.000000 -0.000000 1.000000 1.000000 1.000000
263 1 200.043954 115.259104 200.043954 115.259104 0.000000 0.000000 1.000000 1.000000 1.000000
264 1 130.107051 74.772807 130.107051 74.772807 0.000000 -0.000000 1.000000 1.000000 1.000000
265 1 115.150679 201.044869 115.150679 201.044869 0.000000 -0.000000 1.000000 1.000000 1.000000
266 1 164.281556 150.614335 164.281556 150.614335 -0.000000 -0.000000 1.000000 1.000000 1.000000
267 1 85.652774 201.242705 85.652774 201.242705 -0.000000 0.000000 1.000000 1.000000 1.000000
268 1 107.303532 102.926363 107.303532 102.926363 0.000000 0.000000 1.000000 1.000000 1.000000
269 1 63.010829 189.642985 63.010829 189.642985 0.000000 0.000000 1.000000 1.000000 1.000000
270 1 78.074355 144.338049 78.074355 144.338049 -0.000000 -0.000000 1.000000 1.000000 1.000000
271 1 24.256278 106.029253 24.256278 106.029253 0.000000 0.000000 1.000000 1.000000 1.000000
272 1 181.484220 12.842214 181.484220 12.842214 -0.000000 0.000000 1.000000 1.000000 1.000000
273 1 186.681529 179.138378 186.681529 179.138378 -0.000000 0.000000 1.000000 1.000000 1.000000
274 1 40.555609 210.717756 40.555609 -2.054091 0.000000 -0.000000 1.000000 1.000000 1.000000
275 1 103.574657 14.789433 103.574657 14.789433 0.000000 -0.000000 1.000000 1.000000 1.000000
276 1 82.374158 2.145838 82.374158 214.917685 0.000000 -0.000000 1.000000 1.000000 1.000000
277 1 18.856974 165.717647 18.856974 165.717647 -0.000000 0.000000 1.000000 1.000000 1.000000
278 1 75.394043 199.088622 75.394043 199.088622 -0.000000 -0.000000 1.000000 1.000000 1.000000
279 1 64.495775 70.265744 64.495775 70.265744 -0.000000 -0.000000 1.000000 1.000000 1.000000
280 1 170.755843 84.951462 170.755843 84.951462 0.000000 -0.000000 1.000000 1.000000 1.000000
281 1 2.145046 123.638148 214.916893 123.638148 -0.000000 0.000000 1.000000 1.000000 1.000000
282 1 12.721949 64.808286 225.493796 64.808286 0.000000 0.000000 1.000000 1.000000 1.000000
283 1 39.145500 170.594890 39.145500 170.594890 -0.000000 -0.000000 1.000000 1.000000 1.000000
284 1 133.319378 11.036402 133.319378 11.036402 -0.000000 0.000000 1.000000 1.000000 1.000000
285 1 13.020296 68.531107 13.020296 68.531107 -0.000000 0.000000 1.000000 1.000000 1.000000
286 1 104.787763 113.968585 104.787763 113.968585 -0.000000 0.000000 1.000000 1.000000 1.000000
287 1 77.765895 47.993605 77.765895 47.993605 -0.000000 -0.000000 1.000000 1.000000 1.000000
288 1 106.678455 109.164171 106.678455 109.164171 -0.000000 0.000000 1.000000 1.000000 1.000000
289 1 41.741126 93.438059 41.741126 93.438059 0.000000 -0.000000 1.000000 1.000000 1.000000
290 1 98.028676 101.614358 98.028676 101.614358 -0.000000 0.000000 1.000000 1.000000 1.000000
291 1 71.172325 159.707445 71.172325 159.707445 0.000000 -0.000000 1.000000 1.000000 1.000000
292 1 18.915324 19.827811 18.915324 19.827811 0.000000 -0.000000 1.000000 1.000000 1.000000
293 1 65.389412 206.680603 65.389412 206.680603 -0.000000 0.000000 1.000000 1.000000 1.000000
294 1 90.840939 186.467216 90.840939 186.467216 0.000000 0.000000 1.000000 1.000000 1.000000
295 1 142.902500 119.426195 142.902500 119.426195 -0.000000 0.000000 1.000000 1.000000 1.000000
296 1 197.542146 109.388145 197.542146 109.388145 -0.000000 0.000000 1.000000 1.000000 1.000000
297 1 50.689855 173.238765 50.689855 173.238765 -0.000000 0.000000 1.000000 1.000000 1.000000
298 1 11.714469 45.054109 11.714469 45.054109 -0.000000 -0.000000 1.000000 1.000000 1.000000
299 1 165.394987 179.967907 165.394987 179.967907 -0.000000 0.000000 1.000000 1.000000 1.000000
300 1 210.791559 12.242020 210.791559 12.242020 0.000000 -0.000000 1.000000 1.000000 1.000000
301 1 119.358129 130.085220 119.358129 130.085220 -0.000000 0.000000 1.000000 1.000000 1.000000
302 1 84.873862 89.622619 84.873862 89.622619 -0.000000 -0.000000 1.000000 1.000000 1.000000
303 1 202.370803 163.101175 202.370803 163.101175 0.000000 0.000000 1.000000 1.000000 1.000000
304 1 109.690834 27.963079 109.690834 27.963079 0.000000 0.000000 1.000000 1.000000 1.000000
305 1 172.281282 120.159333 172.281282 120.159333 0.000000 0.000000 1.000000 1.000000 1.000000
306 1 100.779911 135.202126 100.779911 135.202126 -0.000000 0.000000 1.000000 1.000000 1.000000
307 1 140.158353 206.022784 140.158353 -6.749063 -0.000000 -0.000000 1.000000 1.000000 1.000000
308 1 59.952982 30.166364 59.952982 30.166364 0.000000 0.000000 1.000000 1.000000 1.000000
309 1 190.878588 99.305500 190.878588 99.305500 -0.000000 0.000000 1.000000 1.000000 1.000000
310 1 117.143395 78.777234 117.143395 78.777234 0.000000 0.000000 1.000000 1.000000 1.000000
311 1 202.889389 26.491132 202.889389 26.491132 0.000000 -0.000000 1.000000 1.000000 1.000000
312 1 87.658206 208.516270 87.658206 208.516270 -0.000000 -0.000000 1.000000 1.000000 1.000000
313 1 32.014766 163.689191 32.014766 163.689191 0.000000 -0.000000 1.000000 1.000000 1.000000
314 1 19.952370 53.205089 19.952370 53.205089 0.000000 0.000000 1.000000 1.000000 1.000000
315 1 192.468010 189.241514 192.468010 189.241514 -0.000000 -0.000000 1.000000 1.000000 1.000000
316 1 68.337386 203.923821 68.337386 203.923821 -0.000000 -0.000000 1.000000 1.000000 1.000000
317 1 118.824200 93.395968 118.824200 93.395968 0.000000 -0.000000 1.000000 1.000000 1.000000
318 1 194.804106 24.200441 194.804106 24.200441 -0.000000 -0.000000 1.000000 1.000000 1.000000