ITEM: TIMESTEP
2200.000000
ITEM: NUMBER OF ATOMS
5000
ITEM: BOX BOUNDS xy xz yz
0 269.255048 0
0 269.255048 0
0 2 0
ITEM: ATOMS id type x y xu yu vx vy radius m z
0 1 46.481983 214.223231 46.481983 214.223231 0.000000 -0.000000 1.000000 1.000000 1.000000
1 1 189.388830 213.426162 189.388830 213.426162 -0.000000 0.000000 1.000000 1.000000 1.000000
2 1 12.601494 189.300833 281.856542 189.300833 -0.000000 0.000000 1.000000 1.000000 1.000000
3 1 73.532675 40.469588 73.532675 40.469588 -0.000000 -0.000000 1.000000 1.000000 1.000000
4 1 7.588433 133.189209 7.588433 133.189209 0.000000 -0.000000 1.000000 1.000000 1.000000
5 1 264.085108 174.057233 264.085108 174.057233 0.000000 0.000000 1.000000 1.000000 1.000000
6 1 133.190293 195.186747 133.190293 195.186747 0.000000 0.000000 1.000000 1.000000 1.000000
7 1 26.030680 232.921069 26.030680 232.921069 0.000000 -0.000000 1.000000 1.000000 1.000000
8 1 142.176112 110.875987 142.176112 110.875987 -0.000000 -0.000000 1.000000 1.000000 1.000000
9 1 11.907973 35.278995 11.907973 35.278995 -0.000000 -0.000000 1.000000 1.000000 1.000000
10 1 214.772398 96.796420 214.772398 96.796420 0.000000 -0.000000 1.000000 1.000000 1.000000
11 1 214.873282 32.114493 214.873282 32.114493 -0.000000 0.000000 1.000000 1.000000 1.000000
12 1 113.225825 249.656438 113.225825 249.656438 -0.000000 0.000000 1.000000 1.000000 1.000000
13 1 111.585348 48.176562 111.585348 48.176562 0.000000 0.000000 1.000000 1.000000 1.000000
14 1 30.612381 76.776008 30.612381 76.776008 -0.000000 0.000000 1.000000 1.000000 1.000000
15 1 13.499124 36.632624 13.499124 36.632624 -0.000000 0.000000 1.000000 1.000000 1.000000
16 1 249.893448 229.929130 249.893448 229.929130 -0.000000 0.000000 1.000000 1.000000 1.000000
17 1 44.923724 88.163280 44.923724 88.163280 0.000000 -0.000000 1.000000 1.000000 1.000000
18 1 172.011853 57.239592 172.011853 57.239592 -0.000000 -0.000000 1.000000 1.000000 1.000000
19 1 95.043676 120.686505 95.043676 120.686505 -0.000000 -0.000000 1.000000 1.000000 1.000000
20 1 113.275586 36.591592 113.275586 36.591592 0.000000 -0.000000 1.000000 1.000000 1.000000
21 1 21.531659 227.933898 21.531659 227.933898 -0.000000 0.000000 1.000000 1.000000 1.000000
22 1 102.248039 122.064647 102.248039 122.064647 0.000000 0.000000 1.000000 1.000000 1.000000
23 1 252.401711 243.958949 -16.853337 243.958949 0.000000 0.000000 1.000000 1.000000 1.000000
24 1 158.861056 200.159482 158.861056 200.159482 0.000000 -0.000000 1.000000 1.000000 1.000000
25 1 25.942549 230.815590 25.942549 230.815590 -0.000000 -0.000000 1.000000 1.000000 1.000000
26 1 232.733093 216.621657 232.733093 216.621657 -0.000000 -0.000000 1.000000 1.000000 1.000000
27 1 214.805639 116.208770 214.805639 116.208770 0.000000 -0.000000 1.000000 1.000000 1.000000
28 1 221.245380 158.963577 221.245380 158.963577 -0.000000 -0.000000 1.000000 1.000000 1.000000
29 1 109.328671 97.627444 109.328671 97.627444 -0.000000 -0.000000 1.000000 1.000000 1.000000
30 1 187.406833 244.777076 187.406833 244.777076 -0.000000 -0.000000 1.000000 1.000000 1.000000
31 1 54.709080 180.426839 54.709080 180.426839 0.000000 -0.000000 1.000000 1.000000 1.000000
32 1 208.837299 138.923870 208.837299 138.923870 -0.000000 0.000000 1.000000 1.000000 1.000000
33 1 71.665185 125.285356 71.665185 125.285356 0.000000 -0.000000 1.000000 1.000000 1.000000
34 1 21.843704 41.527452 291.098752 41.527452 0.000000 -0.000000 1.000000 1.000000 1.000000
35 1 142.366411 188.262792 142.366411 188.262792 0.000000 0.000000 1.000000 1.000000 1.000000
36 1 87.553240 157.869776 87.553240 157.869776 -0.000000 -0.000000 1.000000 1.000000 1.000000
37 1 110.006110 26.247741 110.006110 26.247741 0.000000 -0.000000 1.000000 1.000000 1.000000
38 1 86.139797 174.880906 86.139797 174.880906 -0.000000 0.000000 1.000000 1.000000 1.000000
39 1 260.916383 82.490336 -8.338665 82.490336 0.000000 -0.000000 1.000000 1.000000 1.000000
40 1 237.458757 250.095499 237.458757 250.095499 -0.000000 0.000000 1.000000 1.000000 1.000000
41 1 250.102214 121.687888 -19.152834 121.687888 -0.000000 0.000000 1.000000 1.000000 1.000000
42 1 149.348328 256.663603 149.348328 256.663603 -0.000000 -0.000000 1.000000 1.000000 1.000000
43 1 214.743757 45.432205 214.743757 45.432205 -0.000000 -0.000000 1.000000 1.000000 1.000000
44 1 63.713163 47.703326 63.713163 47.703326 0.000000 0.000000 1.000000 1.000000 1.000000
45 1 221.864763 259.868034 221.864763 -9.387014 0.000000 -0.000000 1.000000 1.000000 1.000000
46 1 243.772084 153.696737 243.772084 153.696737 -0.000000 0.000000 1.000000 1.000000 1.000000
47 1 11.251718 171.756169 11.251718 171.756169 -0.000000 -0.000000 1.000000 1.000000 1.000000
48 1 108.659939 235.421923 108.659939 235.421923 0.000000 -0.000000 1.000000 1.000000 1.000000
49 1 184.646284 57.343209 184.646284 57.343209 -0.000000 0.000000 1.000000 1.000000 1.000000
50 1 27.941226 5.100708 27.941226 274.355756 -0.000000 0.000000 1.000000 1.000000 1.000000
51 1 49.074952 158.990597 49.074952 158.990597 0.000000 -0.000000 1.000000 1.000000 1.000000
52 1 215.415752 118.694158 215.415752 118.694158 0.000000 -0.000000 1.000000 1.000000 1.000000
53 1 196.467011 18.533179 196.467011 18.533179 0.000000 0.000000 1.000000 1.000000 1.000000
54 1 16.340957 224.789757 285.596005 224.789757 0.000000 -0.000000 1.000000 1.000000 1.000000
55 1 151.696836 195.594177 151.696836 195.594177 0.000000 -0.000000 1.000000 1.000000 1.000000
56 1 108.608782 145.558340 108.608782 145.558340 -0.000000 -0.000000 1.000000 1.000000 1.000000
57 1 26.183671 121.057742 26.183671 121.057742 0.000000 0.000000 1.000000 1.000000 1.000000
58 1 187.739074 20.551246 187.739074 20.551246 0.000000 -0.000000 1.000000 1.000000 1.000000
59 1 84.619261 46.698087 84.619261 46.698087 0.000000 -0.000000 1.000000 1.000000 1.000000
60 1 77.780373 43.784325 77.780373 43.784325 0.000000 -0.000000 1.000000 1.000000 1.000000
61 1 167.271213 252.883027 167.271213 252.883027 -0.000000 0.000000 1.000000 1.000000 1.000000
62 1 85.953404 2.323595 85.953404 271.578643 0.000000 -0.000000 1.000000 1.000000 1.000000
63 1 261.063056 75.919146 -8.191992 75.919146 0.000000 0.000000 1.000000 1.000000 1.000000
64 1 220.332574 183.359981 220.332574 183.359981 0.000000 -0.000000 1.000000 1.000000 1.000000
65 1 4.413472 149.321788 4.413472 149.321788 -0.000000 0.000000 1.000000 1.000000 1.000000
66 1 65.933913 142.865265 65.933913 142.865265 0.000000 -0.000000 1.000000 1.000000 1.000000
67 1 205.237612 75.300755 205.237612 75.300755 0.000000 -0.000000 1.000000 1.000000 1.000000
68 1 107.727263 192.005715 107.727263 192.005715 -0.000000 0.000000 1.000000 1.000000 1.000000
69 1 102.583214 157.278837 102.583214 157.278837 0.000000 -0.000000 1.000000 1.000000 1.000000
70 1 161.837474 173.246480 161.837474 173.246480 -0.000000 0.000000 1.000000 1.000000 1.000000
71 1 21.619452 32.778481 21.619452 32.778481 -0.000000 -0.000000 1.000000 1.000000 1.000000
72 1 245.518680 21.991030 245.518680 21.991030 0.000000 0.000000 1.000000 1.000000 1.000000
73 1 252.922286 223.403500 252.922286 223.403500 0.000000 0.000000 1.000000 1.000000 1.000000
74 1 117.141524 124.363290 117.141524 124.363290 -0.000000 0.000000 1.000000 1.000000 1.000000
75 1 181.350359 54.498237 181.350359 54.498237 0.000000 0.000000 1.000000 1.000000 1.000000
76 1 101.467466 49.043412 101.467466 49.043412 0.000000 -0.000000 1.000000 1.000000 1.000000
77 1 48.213524 115.858032 48.213524 115.858032 -0.000000 0.000000 1.000000 1.000000 1.000000
78 1 110.704279 49.998568 110.704279 49.998568 -0.000000 -0.000002 1.000000 1.000000 1.000000
79 1 21.271015 123.651339 21.271015 123.651339 0.000000 0.000000 1.000000 1.000000 1.000000
80 1 231.029883 129.932822 231.029883 129.932822 0.000001 0.000001 1.000000 1.000000 1.000000
81 1 220.631114 136.952357 220.631114 136.952357 0.000000 0.000000 1.000000 1.000000 1.000000
82 1 17.109628 164.548175 286.364676 164.548175 0.000000 0.000000 1.000000 1.000000 1.000000
83 1 95.844325 194.210985 95.844325 194.210985 -0.000000 -0.000000 1.000000 1.000000 1.000000
84 1 185.085798 138.875487 185.085798 138.875487 -0.000000 0.000000 1.000000 1.000000 1.000000
85 1 21.853418 71.659362 21.853418 71.659362 0.000000 -0.000000 1.000000 1.000000 1.000000
86 1 114.300282 229.490272 114.300282 229.490272 0.000000 0.000000 1.000000 1.000000 1.000000
87 1 49.205476 10.999704 49.205476 10.999704 -0.000000 -0.000000 1.000000 1.000000 1.000000
88 1 210.382810 24.276482 210.382810 24.276482 -0.000000 0.000000 1.000000 1.000000 1.000000
89 1 159.247210 103.955222 159.247210 103.955222 -0.000000 -0.000000 1.000000 1.000000 1.000000
90 1 110.699667 174.330690 110.699667 174.330690 0.000000 -0.000000 1.000000 1.000000 1.000000
91 1 16.190166 262.360405 16.190166 262.360405 0.000000 0.000000 1.000000 1.000000 1.000000
92 1 196.125874 5.498089 196.125874 274.753137 -0.000000 0.000000 1.000000 1.000000 1.000000
93 1 138.800781 31.707992 138.800781 31.707992 0.000000 0.000000 1.000000 1.000000 1.000000
94 1 188.032084 142.171336 188.032084 142.171336 0.000000 0.000000 1.000000 1.000000 1.000000
95 1 84.647269 106.782071 84.647269 106.782071 -0.000000 0.000000 1.000000 1.000000 1.000000
96 1 85.205427 83.732274 85.205427 83.732274 0.000000 0.000000 1.000000 1.000000 1.000000
97 1 17.080629 264.159285 17.080629 264.159285 -0.000000 -0.000000 1.000000 1.000000 1.000000
98 1 93.865187 132.680918 93.865187 132.680918 0.000000 0.000000 1.000000 1.000000 1.000000
99 1 127.187896 126.272685 127.187896 126.272685 -0.000000 -0.000000 1.000000 1.000000 1.000000
100 1 145.072099 176.558821 145.072099 176.558821 0.000000 -0.000000 1.000000 1.000000 1.000000
101 1 203.560920 163.993344 203.560920 163.993344 0.000000 -0.000000 1.000000 1.000000 1.000000
102 1 140.665317 227.328017 140.665317 227.328017 -0.000000 -0.000000 1.000000 1.000000 1.000000
103 1 166.312842 210.323121 166.312842 210.323121 0.000000 -0.000000 1.000000 1.000000 1.000000
104 1 222.661050 265.251698 222.661050 265.251698 0.000000 -0.000000 1.000000 1.000000 1.000000
105 1 110.486696 133.845388 110.486696 133.845388 -0.000000 0.000000 1.000000 1.000000 1.000000
106 1 163.606378 27.433086 163.606378 27.433086 0.000000 -0.000000 1.000000 1.000000 1.000000
107 1 153.781465 131.969353 153.781465 131.969353 0.000000 0.000000 1.000000 1.000000 1.000000
108 1 113.987119 200.121946 113.987119 200.121946 0.000000 -0.000000 1.000000 1.000000 1.000000
109 1 41.639555 143.810058 41.639555 143.810058 -0.000000 0.000000 1.000000 1.000000 1.000000
110 1 225.039671 103.374860 225.039671 103.374860 -0.000000 0.000000 1.000000 1.000000 1.000000
111 1 164.818923 39.387690 164.818923 39.387690 -0.000000 -0.000000 1.000000 1.000000 1.000000
112 1 65.008096 217.377547 65.008096 217.377547 0.000000 -0.000000 1.000000 1.000000 1.000000
113 1 252.187746 15.706958 252.187746 15.706958 0.000000 0.000000 1.000000 1.000000 1.000000
114 1 230.164354 127.062387 230.164354 127.062387 0.000001 -0.000001 1.000000 1.000000 1.000000
115 1 204.029473 109.795185 204.029473 109.795185 -0.000000 0.000000 1.000000 1.000000 1.000000
116 1 160.619416 141.244592 160.619416 141.244592 -0.000000 0.000000 1.000000 1.000000 1.000000
117 1 117.787486 95.955810 117.787486 95.955810 -0.000000 0.000000 1.000000 1.000000 1.000000
118 1 139.285867 12.695516 139.285867 12.695516 0.000000 -0.000000 1.000000 1.000000 1.000000
119 1 141.097402 129.827100 141.097402 129.827100 -0.000000 0.000000 1.000000 1.000000 1.000000
120 1 3.035694 221.687592 3.035694 221.687592 0.000000 0.000000 1.000000 1.000000 1.000000
121 1 22.489374 188.507368 22.489374 188.507368 0.000000 0.000000 1.000000 1.000000 1.000000
122 1 41.505502 2.218531 41.505502 2.218531 0.000000 -0.000000 1.000000 1.000000 1.000000
123 1 220.440845 208.941389 220.440845 208.941389 -0.000000 -0.000000 1.000000 1.000000 1.000000
124 1 264.568104 266.121607 264.568104 266.121607 -0.000000 0.000000 1.000000 1.000000 1.000000
125 1 199.641180 178.000206 199.641180 178.000206 0.000000 -0.000000 1.000000 1.000000 1.000000
126 1 56.926325 102.922271 56.926325 102.922271 -0.000000 -0.000000 1.000000 1.000000 1.000000
127 1 205.066676 243.408375 205.066676 243.408375 -0.000000 0.000000 1.000000 1.000000 1.000000
128 1 155.881270 175.790540 155.881270 175.790540 0.000000 -0.000000 1.000000 1.000000 1.000000
129 1 19.805654 116.508470 19.805654 116.508470 0.000000 -0.000000 1.000000 1.000000 1.000000
130 1 50.978371 197.831081 50.978371 197.831081 0.000000 0.000000 1.000000 1.000000 1.000000
131 1 33.554281 140.567293 33.554281 140.567293 -0.000000 0.000000 1.000000 1.000000 1.000000
132 1 50.464852 183.737822 50.464852 183.737822 0.000000 -0.000000 1.000000 1.000000 1.000000
133 1 48.930456 8.209023 48.930456 8.209023 0.000000 -0.000000 1.000000 1.000000 1.000000
134 1 135.989885 160.525277 135.989885 160.525277 0.000000 -0.000000 1.000000 1.000000 1.000000
135 1 64.475795 258.609570 64.475795 258.609570 -0.000000 0.000000 1.000000 1.000000 1.000000
136 1 157.960959 8.562220 157.960959 277.817268 0.000000 -0.000000 1.000000 1.000000 1.000000
137 1 31.301883 8.897678 31.301883 8.897678 -0.000000 -0.000000 1.000000 1.000000 1.000000
138 1 217.156361 92.396244 217.156361 92.396244 0.000000 -0.000000 1.000000 1.000000 1.000000
139 1 149.100932 34.635735 149.100932 34.635735 0.000000 -0.000000 1.000000 1.000000 1.000000
140 1 256.842692 4.750235 256.842692 4.750235 -0.000000 0.000000 1.000000 1.000000 1.000000
141 1 174.545929 145.050918 174.545929 145.050918 0.000000 -0.000000 1.000000 1.000000 1.000000
142 1 57.637045 233.570514 57.637045 233.570514 0.000000 -0.000000 1.000000 1.000000 1.000000
143 1 127.731460 87.778421 127.731460 87.778421 0.000000 0.000000 1.000000 1.000000 1.000000
144 1 173.663804 261.545026 173.663804 -7.710022 -0.000000 -0.000000 1.000000 1.000000 1.000000
145 1 121.245452 210.159351 121.245452 210.159351 -0.000000 -0.000000 1.000000 1.000000 1.000000
146 1 67.102034 95.985219 67.102034 95.985219 0.000000 -0.000000 1.000000 1.000000 1.000000
147 1 155.990021 140.702398 155.990021 140.702398 -0.000000 -0.000000 1.000000 1.000000 1.000000
148 1 246.245602 101.119324 246.245602 101.119324 -0.000000 0.000000 1.000000 1.000000 1.000000
149 1 65.790383 108.393661 65.790383 108.393661 0.000000 0.000000 1.000000 1.000000 1.000000
150 1 41.157449 92.603899 41.157449 92.603899 0.000000 -0.000000 1.000000 1.000000 1.000000
151 1 33.773923 73.517225 33.773923 73.517225 0.000000 0.000000 1.000000 1.000000 1.000000
152 1 36.952808 106.741624 36.952808 106.741624 0.000000 -0.000000 1.000000 1.000000 1.000000
153 1 206.119185 176.633533 206.119185 176.633533 0.000000 0.000000 1.000000 1.000000 1.000000
154 1 17.108376 79.409015 17.108376 79.409015 -0.000000 0.000000 1.000000 1.000000 1.000000
155 1 116.989542 211.324310 116.989542 211.324310 0.000000 0.000000 1.000000 1.000000 1.000000
156 1 12.661600 184.587471 12.661600 184.587471 0.000000 -0.000000 1.000000 1.000000 1.000000
157 1 203.134535 92.788155 203.134535 92.788155 0.000000 -0.000000 1.000000 1.000000 1.000000
158 1 69.424447 253.462992 69.424447 253.462992 0.000000 -0.000000 1.000000 1.000000 1.000000
159 1 201.942511 7.873809 201.942511 7.873809 0.000000 -0.000000 1.000000 1.000000 1.000000
160 1 86.380261 217.471671 86.380261 217.471671 0.000000 0.000000 1.000000 1.000000 1.000000
161 1 265.422420 68.859181 -3.832628 68.859181 -0.000000 -0.000000 1.000000 1.000000 1.000000
162 1 166.710484 259.624637 166.710484 259.624637 0.000000 -0.000000 1.000000 1.000000 1.000000
163 1 16.161691 188.367124 16.161691 188.367124 0.000000 -0.000000 1.000000 1.000000 1.000000
164 1 109.850143 89.448601 109.850143 89.448601 -0.000000 -0.000000 1.000000 1.000000 1.000000
165 1 233.018040 205.992768 233.018040 205.992768 -0.000000 -0.000000 1.000000 1.000000 1.000000
166 1 242.453978 129.927828 242.453978 129.927828 -0.000000 -0.000000 1.000000 1.000000 1.000000
167 1 75.918581 2.091307 75.918581 271.346355 -0.000000 -0.000000 1.000000 1.000000 1.000000
168 1 169.926160 24.254559 169.926160 24.254559 0.000000 0.000000 1.000000 1.000000 1.000000
169 1 174.270894 233.926958 174.270894 233.926958 0.000000 -0.000000 1.000000 1.000000 1.000000
170 1 28.483926 149.165893 28.483926 149.165893 -0.000000 0.000000 1.000000 1.000000 1.000000
171 1 35.119286 254.835573 35.119286 254.835573 0.000000 0.000000 1.000000 1.000000 1.000000
172 1 40.931511 24.218330 40.931511 24.218330 0.000000 -0.000000 1.000000 1.000000 1.000000
173 1 249.978068 1.788146 249.978068 271.043194 -0.000000 0.000000 1.000000 1.000000 1.000000
174 1 100.362039 255.010182 100.362039 255.010182 0.000000 0.000000 1.000000 1.000000 1.000000
175 1 235.711734 105.264584 235.711734 105.264584 0.000000 -0.000000 1.000000 1.000000 1.000000
176 1 254.207345 13.205135 254.207345 13.205135 -0.000000 -0.000000 1.000000 1.000000 1.000000
177 1 133.525894 90.740904 133.525894 90.740904 0.000000 -0.000000 1.000000 1.000000 1.000000
178 1 124.383827 179.367899 124.383827 179.367899 0.000000 0.000000 1.000000 1.000000 1.000000
179 1 96.180533 212.890792 96.180533 212.890792 -0.000000 0.000000 1.000000 1.000000 1.000000
180 1 57.715906 48.539351 57.715906 48.539351 0.000000 -0.000000 1.000000 1.000000 1.000000
181 1 197.925883 215.723086 197.925883 215.723086 0.000000 0.000000 1.000000 1.000000 1.000000
182 1 188.742717 8.793571 188.742717 278.048619 0.000000 0.000000 1.000000 1.000000 1.000000
183 1 25.029699 46.407972 25.029699 46.407972 0.000000 -0.000000 1.000000 1.000000 1.000000
184 1 257.424328 157.205908 257.424328 157.205908 0.000000 -0.000000 1.000000 1.000000 1.000000
185 1 230.481453 96.595938 230.481453 96.595938 0.000000 0.000000 1.000000 1.000000 1.000000
186 1 200.256919 158.136189 200.256919 158.136189 0.000000 -0.000000 1.000000 1.000000 1.000000
187 1 235.547447 71.379717 235.547447 71.379717 -0.000000 0.000000 1.000000 1.000000 1.000000
188 1 103.527152 27.251723 103.527152 296.506771 0.000000 -0.000000 1.000000 1.000000 1.000000
189 1 232.719374 2.005231 232.719374 2.005231 -0.000000 0.000000 1.000000 1.000000 1.000000
190 1 40.296788 114.017523 40.296788 114.017523 0.000000 -0.000000 1.000000 1.000000 1.000000
191 1 36.367522 168.069701 36.367522 168.069701 0.000000 0.000000 1.000000 1.000000 1.000000
192 1 177.961064 254.163674 177.961064 254.163674 -0.000000 -0.000000 1.000000 1.000000 1.000000
193 1 241.541189 262.219189 241.541189 -7.035859 -0.000000 0.000000 1.000000 1.000000 1.000000
194 1 16.204649 169.418546 16.204649 169.418546 -0.000000 -0.000000 1.000000 1.000000 1.000000
195 1 62.386033 140.267352 62.386033 140.267352 -0.000000 0.000000 1.000000 1.000000 1.000000
196 1 126.499642 252.057965 126.499642 252.057965 -0.000000 0.000000 1.000000 1.000000 1.000000
197 1 103.739281 119.690577 103.739281 119.690577 -0.000000 0.000000 1.000000 1.000000 1.000000
198 1 114.952203 129.289630 114.952203 129.289630 -0.000000 0.000000 1.000000 1.000000 1.000000
199 1 245.334960 192.071045 245.334960 192.071045 0.000000 -0.000000 1.000000 1.000000 1.000000
200 1 42.067263 127.118128 42.067263 127.118128 -0.000000 0.000000 1.000000 1.000000 1.000000
201 1 165.379421 188.739485 165.379421 188.739485 -0.000000 0.000000 1.000000 1.000000 1.000000
202 1 103.724117 233.130942 103.724117 233.130942 0.000000 0.000000 1.000000 1.000000 1.000000
203 1 114.804712 193.590532 114.804712 193.590532 0.000000 -0.000000 1.000000 1.000000 1.000000
204 1 104.824044 41.082365 104.824044 41.082365 0.000000 -0.000000 1.000000 1.000000 1.000000
205 1 139.635784 259.584197 139.635784 -9.670851 0.000000 0.000000 1.000000 1.000000 1.000000
206 1 201.612849 64.523366 201.612849 64.523366 -0.000000 -0.000000 1.000000 1.000000 1.000000
207 1 255.904668 169.425558 255.904668 169.425558 0.000000 0.000000 1.000000 1.000000 1.000000
208 1 233.323708 35.824947 233.323708 35.824947 -0.000000 0.000000 1.000000 1.000000 1.000000
209 1 76.136339 137.139418 76.136339 137.139418 0.000000 0.000000 1.000000 1.000000 1.000000
210 1 229.250975 134.854398 229.250975 134.854398 0.000000 -0.000000 1.000000 1.000000 1.000000
211 1 256.523571 22.602481 256.523571 22.602481 -0.000000 0.000000 1.000000 1.000000 1.000000
212 1 239.640076 30.373144 239.640076 30.373144 -0.000000 0.000000 1.000000 1.000000 1.000000
213 1 26.145272 166.156881 26.145272 166.156881 0.000000 -0.000000 1.000000 1.000000 1.000000
214 1 124.220330 154.170605 124.220330 154.170605 0.000000 0.000000 1.000000 1.000000 1.000000
215 1 243.753775 124.552357 243.753775 124.552357 0.000000 0.000000 1.000000 1.000000 1.000000
216 1 153.357082 57.927501 153.357082 57.927501 0.000000 0.000000 1.000000 1.000000 1.000000
217 1 147.983953 237.187369 147.983953 237.187369 0.000000 0.000000 1.000000 1.000000 1.000000
218 1 233.464470 77.657743 233.464470 77.657743 0.000000 -0.000000 1.000000 1.000000 1.000000
219 1 147.745832 37.778780 147.745832 37.778780 0.000000 -0.000000 1.000000 1.000000 1.000000
220 1 140.565295 172.338542 140.565295 172.338542 0.000000 0.000000 1.000000 1.000000 1.000000
221 1 242.144405 199.002678 242.144405 199.002678 0.000000 -0.000000 1.000000 1.000000 1.000000
222 1 204.466629 24.899168 204.466629 24.899168 0.000000 -0.000000 1.000000 1.000000 1.000000
223 1 252.159736 139.965071 252.159736 139.965071 0.000000 0.000000 1.000000 1.000000 1.000000
224 1 141.667891 193.547087 141.667891 193.547087 0.000000 -0.000000 1.000000 1.000000 1.000000
225 1 264.541943 14.956893 264.541943 14.956893 -0.000000 0.000000 1.000000 1.000000 1.000000
226 1 181.622714 217.702481 181.622714 217.702481 -0.000000 0.000000 1.000000 1.000000 1.000000
227 1 256.975633 78.714375 256.975633 78.714375 0.000000 0.000000 1.000000 1.000000 1.000000
228 1 92.002211 121.565052 92.002211 121.565052 0.000000 -0.000000 1.000000 1.000000 1.000000
229 1 154.778157 126.974350 154.778157 126.974350 -0.000000 0.000000 1.000000 1.000000 1.000000
230 1 23.670166 129.718354 23.670166 129.718354 -0.000000 0.000000 1.000000 1.000000 1.000000
231 1 115.554367 156.819447 115.554367 156.819447 -0.000000 0.000000 1.000000 1.000000 1.000000
232 1 125.150475 119.275272 125.150475 119.275272 0.000000 -0.000000 1.000000 1.000000 1.000000
233 1 268.286022 74.121210 -0.969026 74.121210 0.000000 0.000000 1.000000 1.000000 1.000000
234 1 165.408201 175.683019 165.408201 175.683019 0.000000 -0.000000 1.000000 1.000000 1.000000
235 1 102.772905 205.334890 102.772905 205.334890 -0.000000 0.000000 1.000000 1.000000 1.000000
236 1 27.100395 227.895464 27.100395 227.895464 0.000000 0.000000 1.000000 1.000000 1.000000
237 1 108.357249 2.539494 108.357249 2.539494 -0.000000 -0.000000 1.000000 1.000000 1.000000
238 1 218.656875 14.479662 218.656875 14.479662 -0.000000 0.000000 1.000000 1.000000 1.000000
239 1 74.703905 104.965913 74.703905 104.965913 -0.000000 -0.000000 1.000000 1.000000 1.000000
240 1 207.957370 37.114433 207.957370 37.114433 0.000000 0.000000 1.000000 1.000000 1.000000
241 1 248.446867 194.947858 248.446867 194.947858 -0.000000 -0.000000 1.000000 1.000000 1.000000
242 1 255.636139 238.602350 255.636139 238.602350 -0.000000 -0.000000 1.000000 1.000000 1.000000
243 1 125.027935 18.485257 125.027935 287.740305 0.000000 -0.000000 1.000000 1.000000 1.000000
244 1 199.780497 213.970601 199.780497 213.970601 -0.000000 -0.000000 1.000000 1.000000 1.000000
245 1 194.740732 92.398512 194.740732 92.398512 -0.000000 -0.000000 1.000000 1.000000 1.000000
246 1 249.300951 200.674592 249.300951 200.674592 -0.000000 -0.000000 1.000000 1.000000 1.000000
247 1 217.634024 32.779784 217.634024 32.779784 0.000000 0.000000 1.000000 1.000000 1.000000
248 1 14.319126 120.239114 14.319126 120.239114 0.000000 0.000000 1.000000 1.000000 1.000000
249 1 226.051683 98.240840 226.051683 98.240840 0.000000 -0.000000 1.000000 1.000000 1.000000
250 1 197.446892 65.416455 197.446892 65.416455 -0.000000 -0.000000 1.000000 1.000000 1.000000
251 1 116.862068 146.004680 116.862068 146.004680 0.000000 0.000000 1.000000 1.000000 1.000000
252 1 254.960758 161.944746 254.960758 161.944746 -0.000000 -0.000000 1.000000 1.000000 1.000000
253 1 155.196187 261.323149 155.196187 261.323149 0.000000 0.000000 1.000000 1.000000 1.000000
254 1 192.131283 112.415749 192.131283 112.415749 -0.000000 0.000000 1.000000 1.000000 1.000000
255 1 31.147607 257.906395 31.147607 -11.348653 0.000000 -0.000000 1.000000 1.000000 1.000000
256 1 180.127219 209.443532 180.127219 209.443532 -0.000000 0.000000 1.000000 1.000000 1.000000
257 1 222.439286 55.918631 222.439286 55.918631 0.000000 -0.000000 1.000000 1.000000 1.000000
258 1 17.065463 143.913120 17.065463 143.913120 0.000000 -0.000000 1.000000 1.000000 1.000000
259 1 72.780604 149.707689 72.780604 149.707689 -0.000000 0.000000 1.000000 1.000000 1.000000
260 1 7.620693 197.474491 7.620693 197.474491 -0.000000 0.000000 1.000000 1.000000 1.000000
261 1 82.729772 147.129528 82.729772 147.129528 -0.000000 0.000000 1.000000 1.000000 1.000000
262 1 84.813084 28.831809 84.813084 28.831809 0.000000 -0.000000 1.000000 1.000000 1.000000
263 1 150.928018 69.150685 150.928018 69.150685 -0.000000 0.000000 1.000000 1.000000 1.000000
264 1 165.317778 91.835899 165.317778 91.835899 0.000000 0.000000 1.000000 1.000000 1.000000
265 1 109.015672 65.820785 109.015672 65.820785 -0.000002 0.000001 1.000000 1.000000 1.000000
266 1 206.111051 142.578381 206.111051 142.578381 0.000000 -0.000000 1.000000 1.000000 1.000000
267 1 139.341883 201.430397 139.341883 201.430397 -0.000000 0.000000 1.000000 1.000000 1.000000
268 1 185.513203 47.839921 185.513203 47.839921 -0.000000 -0.000000 1.000000 1.000000 1.000000
269 1 21.694265 168.109721 21.694265 168.109721 0.000000 -0.000000 1.000000 1.000000 1.000000
270 1 54.793174 189.965794 54.793174 189.965794 -0.000000 -0.000000 1.000000 1.000000 1.000000
271 1 78.611620 260.314777 78.611620 260.314777 0.000000 0.000000 1.000000 1.000000 1.000000
272 1 186.339807 166.929911 186.339807 166.929911 0.000000 0.000000 1.000000 1.000000 1.000000
273 1 46.494761 206.413347 46.494761 206.413347 -0.000000 -0.000000 1.000000 1.000000 1.000000
274 1 201.982792 179.567885 201.982792 179.567885 0.000000 -0.000000 1.000000 1.000000 1.000000
275 1 179.656912 258.865760 179.656912 258.865760 -0.000000 -0.000000 1.000000 1.000000 1.000000
276 1 194.457318 108.660842 194.457318 108.660842 -0.000000 0.000000 1.000000 1.000000 1.000000
277 1 137.656569 103.489843 137.656569 103.489843 -0.000000 -0.000000 1.000000 1.000000 1.000000
278 1 4.385794 74.948054 273.640842 74.948054 -0.000000 -0.000000 1.000000 1.000000 1.000000
279 1 247.645162 144.878057 247.645162 144.878057 -0.000000 0.000000 1.000000 1.000000 1.000000
280 1 67.465259 214.246951 67.465259 214.246951 0.000000 0.000000 1.000000 1.000000 1.000000
281 1 215.841042 233.735586 215.841042 233.735586 -0.000000 0.000000 1.000000 1.000000 1.000000
282 1 85.426393 221.632063 85.426393 221.632063 0.000000 0.000000 1.000000 1.000000 1.000000
283 1 65.259306 248.975280 65.259306 248.975280 0.000000 0.000000 1.000000 1.000000 1.000000
284 1 217.861518 233.197809 217.861518 233.197809 0.000000 0.000000 1.000000 1.000000 1.000000
285 1 156.465915 216.555421 156.465915 216.555421 0.000000 0.000000 1.000000 1.000000 1.000000
286 1 76.814540 157.511019 76.814540 157.511019 -0.000000 0.000000 1.000000 1.000000 1.000000
287 1 38.630439 42.436176 38.630439 42.436176 -0.000000 0.000000 1.000000 1.000000 1.000000
288 1 170.189882 8.603789 170.189882 8.603789 0.000000 0.000000 1.000000 1.000000 1.000000
289 1 139.541937 147.175477 139.541937 147.175477 0.000000 0.000000 1.000000 1.000000 1.000000
290 1 49.274534 221.904190 49.274534 221.904190 0.000000 -0.000000 1.000000 1.000000 1.000000
291 1 264.337152 42.543351 264.337152 42.543351 -0.000000 0.000000 1.000000 1.000000 1.000000
292 1 257.623438 95.791900 257.623438 95.791900 -0.000000 0.000000 1.000000 1.000000 1.000000
293 1 23.010947 226.252429 23.010947 226.252429 -0.000000 0.000000 1.000000 1.000000 1.000000
294 1 101.127496 154.842453 101.127496 154.842453 0.000000 0.000000 1.000000 1.000000 1.000000
295 1 181.060272 17.212957 181.060272 17.212957 -0.000000 -0.000000 1.000000 1.000000 1.000000
296 1 221.495348 176.905529 221.495348 176.905529 0.000000 0.000000 1.000000 1.000000 1.000000
297 1 42.827276 215.206610 42.827276 215.206610 0.000000 -0.000000 1.000000 1.000000 1.000000
298 1 215.253983 150.400487 215.253983 150.400487 0.000000 -0.000000 1.000000 1.000000 1.000000
299 1 255.528386 20.623614 255.528386 20.623614 0.000000 -0.000000 1.000000 1.000000 1.000000
300 1 139.613151 137.966915 139.613151 137.966915 0.000000 -0.000000 1.000000 1.000000 1.000000
301 1 162.803742 261.028817 162.803742 261.028817 -0.000000 0.000000 1.000000 1.000000 1.000000
302 1 243.213056 52.829847 243.213056 52.829847 0.000000 -0.000000 1.000000 1.000000 1.000000
303 1 183.147536 102.690542 183.147536 102.690542 0.000000 0.000000 1.000000 1.000000 1.000000
304 1 139.480524 60.284952 139.480524 60.284952 -0.000000 0.000000 1.000000 1.000000 1.000000
305 1 10.433059 257.796647 10.433059 257.796647 -0.000000 0.000000 1.000000 1.000000 1.000000
306 1 261.384021 191.271728 261.384021 191.271728 -0.000000 0.000000 1.000000 1.000000 1.000000
307 1 222.056223 184.954376 222.056223 184.954376 -0.000000 0.000000 1.000000 1.000000 1.000000
308 1 119.908890 150.051959 119.908890 150.051959 -0.000000 0.000000 1.000000 1.000000 1.000000
309 1 155.504999 44.226355 155.504999 44.226355 0.000000 0.000000 1.000000 1.000000 1.000000
310 1 162.549852 39.284442 162.549852 39.284442 -0.000000 0.000000 1.000000 1.000000 1.000000
311 1 188.906786 219.024981 188.906786 219.024981 0.000000 0.000000 1.000000 1.000000 1.000000
312 1 130.015144 62.990550 130.015144 62.990550 0.000000 0.000000 1.000000 1.000000 1.000000
313 1 27.095894 115.806624 27.095894 115.806624 0.000000 -0.000000 1.000000 1.000000 1.000000
314 1 99.607629 25.160554 99.607629 25.160554 -0.000000 -0.000000 1.000000 1.000000 1.000000
315 1 25.961481 91.659720 25.961481 91.659720 -0.000000 -0.000000 1.000000 1.000000 1.000000