ITEM: TIMESTEP
1500.000000
ITEM: NUMBER OF ATOMS
5000
ITEM: BOX BOUNDS xy xz yz
0 256.969790 0
0 256.969790 0
0 2 0
ITEM: ATOMS id type x y xu yu vx vy radius m z
0 1 214.260189 74.186923 214.260189 74.186923 0.000000 0.000000 1.000000 1.000000 1.000000
1 1 131.991907 75.388455 131.991907 75.388455 -0.000000 -0.000000 1.000000 1.000000 1.000000
2 1 60.107075 192.678269 60.107075 192.678269 0.000000 0.000000 1.000000 1.000000 1.000000
3 1 227.686429 111.400942 227.686429 111.400942 0.000000 0.000000 1.000000 1.000000 1.000000
4 1 243.048928 23.117082 243.048928 23.117082 0.000000 -0.000000 1.000000 1.000000 1.000000
5 1 30.499296 243.525573 30.499296 243.525573 0.000000 0.000000 1.000000 1.000000 1.000000
6 1 59.766540 25.965371 59.766540 25.965371 -0.000000 0.000000 1.000000 1.000000 1.000000
7 1 227.024770 174.795596 227.024770 174.795596 -0.000000 0.000000 1.000000 1.000000 1.000000
8 1 81.158309 132.054096 81.158309 132.054096 0.000000 0.000000 1.000000 1.000000 1.000000
9 1 47.924526 97.607172 47.924526 97.607172 -0.000000 -0.000000 1.000000 1.000000 1.000000
10 1 29.126961 169.835576 286.096751 169.835576 0.000000 -0.000000 1.000000 1.000000 1.000000
11 1 198.430606 136.059044 198.430606 136.059044 0.000000 -0.000000 1.000000 1.000000 1.000000
12 1 227.552311 246.019537 227.552311 246.019537 -0.000000 -0.000000 1.000000 1.000000 1.000000
13 1 123.817085 36.891471 123.817085 36.891471 0.000000 0.000000 1.000000 1.000000 1.000000
14 1 204.024890 86.052806 204.024890 86.052806 0.000000 0.000000 1.000000 1.000000 1.000000
15 1 141.350943 140.736253 141.350943 140.736253 0.000000 0.000000 1.000000 1.000000 1.000000
16 1 44.667026 173.278374 44.667026 173.278374 0.000000 0.000000 1.000000 1.000000 1.000000
17 1 142.433460 62.283146 142.433460 62.283146 0.000000 -0.000000 1.000000 1.000000 1.000000
18 1 185.918989 65.856626 185.918989 65.856626 -0.000000 -0.000000 1.000000 1.000000 1.000000
19 1 224.922196 156.755152 224.922196 156.755152 -0.000000 -0.000000 1.000000 1.000000 1.000000
20 1 155.044745 108.857074 155.044745 108.857074 -0.000000 0.000000 1.000000 1.000000 1.000000
21 1 104.423236 65.331087 104.423236 65.331087 0.000000 0.000000 1.000000 1.000000 1.000000
22 1 71.660462 37.598400 71.660462 37.598400 -0.000000 -0.000000 1.000000 1.000000 1.000000
23 1 36.261036 13.998483 36.261036 13.998483 -0.000000 -0.000000 1.000000 1.000000 1.000000
24 1 212.843935 87.093102 212.843935 87.093102 0.000000 0.000000 1.000000 1.000000 1.000000
25 1 174.235934 17.586474 174.235934 17.586474 0.000000 0.000000 1.000000 1.000000 1.000000
26 1 0.617207 233.306043 0.617207 233.306043 -0.000000 -0.000000 1.000000 1.000000 1.000000
27 1 167.062509 93.642340 167.062509 93.642340 0.000000 -0.000000 1.000000 1.000000 1.000000
28 1 18.082197 8.680958 18.082197 265.650748 -0.000000 -0.000000 1.000000 1.000000 1.000000
29 1 9.238449 101.940947 9.238449 101.940947 0.000000 0.000000 1.000000 1.000000 1.000000
30 1 53.851012 42.463327 53.851012 42.463327 -0.000000 -0.000000 1.000000 1.000000 1.000000
31 1 186.847369 63.017242 186.847369 63.017242 0.000000 -0.000000 1.000000 1.000000 1.000000
32 1 217.363446 201.561550 217.363446 201.561550 -0.000000 0.000000 1.000000 1.000000 1.000000
33 1 179.514909 5.980748 179.514909 262.950538 0.000000 -0.000000 1.000000 1.000000 1.000000
34 1 0.577941 256.684705 257.547731 -0.285085 -0.000000 -0.000000 1.000000 1.000000 1.000000
35 1 57.013424 4.487637 57.013424 4.487637 0.000000 0.000000 1.000000 1.000000 1.000000
36 1 142.819749 114.303489 142.819749 114.303489 -0.000000 0.000000 1.000000 1.000000 1.000000
37 1 157.282565 1.081981 157.282565 1.081981 0.000000 0.000000 1.000000 1.000000 1.000000
38 1 222.789841 195.750061 222.789841 195.750061 -0.000000 0.000000 1.000000 1.000000 1.000000
39 1 162.672260 126.061449 162.672260 126.061449 -0.000000 0.000000 1.000000 1.000000 1.000000
40 1 240.044113 90.524518 240.044113 90.524518 0.000000 0.000000 1.000000 1.000000 1.000000
41 1 79.062658 9.343231 79.062658 9.343231 0.000000 0.000000 1.000000 1.000000 1.000000
42 1 163.231613 10.908317 163.231613 10.908317 -0.000000 0.000000 1.000000 1.000000 1.000000
43 1 170.472701 76.289675 170.472701 76.289675 0.000000 -0.000000 1.000000 1.000000 1.000000
44 1 37.013492 246.506593 37.013492 246.506593 0.000000 -0.000000 1.000000 1.000000 1.000000
45 1 159.516800 107.695998 159.516800 107.695998 -0.000000 -0.000000 1.000000 1.000000 1.000000
46 1 106.455856 30.074336 106.455856 30.074336 0.000000 0.000000 1.000000 1.000000 1.000000
47 1 175.293500 20.670137 175.293500 20.670137 -0.000000 0.000000 1.000000 1.000000 1.000000
48 1 131.626932 254.991971 131.626932 -1.977819 -0.000000 0.000000 1.000000 1.000000 1.000000
49 1 53.607130 103.585628 53.607130 103.585628 -0.000000 -0.000000 1.000000 1.000000 1.000000
50 1 11.721232 13.827925 11.721232 13.827925 -0.000000 0.000000 1.000000 1.000000 1.000000
51 1 156.330354 78.204851 156.330354 78.204851 0.000000 -0.000000 1.000000 1.000000 1.000000
52 1 185.316938 214.039025 185.316938 214.039025 0.000000 0.000000 1.000000 1.000000 1.000000
53 1 86.669637 34.796257 86.669637 34.796257 0.000000 -0.000000 1.000000 1.000000 1.000000
54 1 203.874993 150.825307 203.874993 150.825307 0.000000 0.000000 1.000000 1.000000 1.000000
55 1 83.154416 247.194331 83.154416 247.194331 -0.000000 0.000000 1.000000 1.000000 1.000000
56 1 175.112477 104.392869 175.112477 104.392869 0.000000 0.000000 1.000000 1.000000 1.000000
57 1 45.249796 44.633077 45.249796 44.633077 -0.000000 0.000000 1.000000 1.000000 1.000000
58 1 162.051404 146.395065 162.051404 146.395065 -0.000000 0.000000 1.000000 1.000000 1.000000
59 1 13.069628 84.811450 13.069628 84.811450 0.000000 0.000000 1.000000 1.000000 1.000000
60 1 98.429426 32.541068 98.429426 32.541068 0.000000 0.000000 1.000000 1.000000 1.000000
61 1 219.502746 42.037684 219.502746 42.037684 0.000000 -0.000000 1.000000 1.000000 1.000000
62 1 8.451328 86.332390 8.451328 86.332390 -0.000000 -0.000000 1.000000 1.000000 1.000000
63 1 139.508904 13.403051 139.508904 13.403051 0.000000 0.000000 1.000000 1.000000 1.000000
64 1 105.634231 82.560343 105.634231 82.560343 -0.000000 0.000000 1.000000 1.000000 1.000000
65 1 153.571231 136.746477 153.571231 136.746477 -0.000000 0.000000 1.000000 1.000000 1.000000
66 1 192.107584 194.965730 192.107584 194.965730 -0.000000 -0.000000 1.000000 1.000000 1.000000
67 1 156.084133 218.093297 156.084133 218.093297 0.000000 -0.000000 1.000000 1.000000 1.000000
68 1 111.542444 212.367075 111.542444 212.367075 0.000000 -0.000000 1.000000 1.000000 1.000000
69 1 114.287586 193.030080 114.287586 193.030080 -0.000000 -0.000000 1.000000 1.000000 1.000000
70 1 52.572083 57.565650 52.572083 57.565650 -0.000000 0.000000 1.000000 1.000000 1.000000
71 1 32.694478 123.073622 32.694478 123.073622 -0.000000 0.000000 1.000000 1.000000 1.000000
72 1 209.170002 0.788125 209.170002 0.788125 -0.000000 0.000000 1.000000 1.000000 1.000000
73 1 190.927045 88.621734 190.927045 88.621734 0.000000 0.000000 1.000000 1.000000 1.000000
74 1 225.138343 17.326016 225.138343 17.326016 0.000000 -0.000000 1.000000 1.000000 1.000000
75 1 219.249372 243.996630 219.249372 243.996630 0.000000 0.000000 1.000000 1.000000 1.000000
76 1 74.619657 57.654617 74.619657 57.654617 0.000000 -0.000000 1.000000 1.000000 1.000000
77 1 64.583793 157.304150 64.583793 157.304150 -0.000000 -0.000000 1.000000 1.000000 1.000000
78 1 75.183699 87.871621 75.183699 87.871621 -0.000000 -0.000000 1.000000 1.000000 1.000000
79 1 3.073730 174.449505 260.043520 174.449505 -0.000000 -0.000000 1.000000 1.000000 1.000000
80 1 81.287023 248.786580 81.287023 248.786580 -0.000000 -0.000000 1.000000 1.000000 1.000000
81 1 222.423911 177.007938 222.423911 177.007938 -0.000000 -0.000000 1.000000 1.000000 1.000000
82 1 166.739992 38.625257 166.739992 38.625257 -0.000000 -0.000000 1.000000 1.000000 1.000000
83 1 213.405450 0.764807 213.405450 257.734597 0.000000 0.000000 1.000000 1.000000 1.000000
84 1 182.724549 163.394848 182.724549 163.394848 -0.000000 0.000000 1.000000 1.000000 1.000000
85 1 149.742035 110.203275 149.742035 110.203275 -0.000000 0.000000 1.000000 1.000000 1.000000
86 1 197.698833 79.391817 197.698833 79.391817 0.000000 0.000000 1.000000 1.000000 1.000000
87 1 71.585316 198.929741 71.585316 198.929741 0.000000 0.000000 1.000000 1.000000 1.000000
88 1 188.521114 204.314759 188.521114 204.314759 -0.000000 -0.000000 1.000000 1.000000 1.000000
89 1 164.388217 154.017467 164.388217 154.017467 0.000000 -0.000000 1.000000 1.000000 1.000000
90 1 219.369979 122.312700 219.369979 122.312700 -0.000000 0.000000 1.000000 1.000000 1.000000
91 1 115.554997 236.954229 115.554997 236.954229 0.000000 -0.000000 1.000000 1.000000 1.000000
92 1 63.943178 55.847605 63.943178 55.847605 -0.000000 0.000000 1.000000 1.000000 1.000000
93 1 230.454134 89.898797 230.454134 89.898797 0.000000 -0.000000 1.000000 1.000000 1.000000
94 1 22.187650 75.126140 22.187650 75.126140 0.000000 -0.000000 1.000000 1.000000 1.000000
95 1 166.731568 247.152647 166.731568 247.152647 0.000000 0.000000 1.000000 1.000000 1.000000
96 1 178.913511 81.973233 178.913511 81.973233 -0.000000 0.000000 1.000000 1.000000 1.000000
97 1 186.380647 244.835173 186.380647 244.835173 0.000000 0.000000 1.000000 1.000000 1.000000
98 1 173.205808 79.390794 173.205808 79.390794 -0.000000 0.000000 1.000000 1.000000 1.000000
99 1 207.925903 117.042448 207.925903 117.042448 -0.000000 -0.000000 1.000000 1.000000 1.000000
100 1 86.959234 151.668483 86.959234 151.668483 0.000000 -0.000000 1.000000 1.000000 1.000000
101 1 162.912969 215.804509 162.912969 215.804509 -0.000000 0.000000 1.000000 1.000000 1.000000
102 1 72.368237 132.639826 72.368237 132.639826 -0.000000 -0.000000 1.000000 1.000000 1.000000
103 1 111.301469 29.937485 111.301469 29.937485 -0.000000 0.000000 1.000000 1.000000 1.000000
104 1 244.300248 165.967229 244.300248 165.967229 0.000000 0.000000 1.000000 1.000000 1.000000
105 1 57.855817 89.315268 57.855817 89.315268 -0.000000 0.000000 1.000000 1.000000 1.000000
106 1 41.423752 11.062000 41.423752 11.062000 -0.000000 0.000000 1.000000 1.000000 1.000000
107 1 210.256055 53.030432 210.256055 53.030432 0.000000 -0.000000 1.000000 1.000000 1.000000
108 1 252.162664 207.606509 -4.807126 207.606509 -0.000000 -0.000000 1.000000 1.000000 1.000000
109 1 40.197863 165.804573 40.197863 165.804573 0.000000 -0.000000 1.000000 1.000000 1.000000
110 1 13.266071 139.937397 13.266071 139.937397 -0.000000 0.000000 1.000000 1.000000 1.000000
111 1 97.318614 45.630104 97.318614 45.630104 0.000000 0.000000 1.000000 1.000000 1.000000
112 1 30.504098 51.048760 30.504098 51.048760 0.000000 0.000000 1.000000 1.000000 1.000000
113 1 238.332530 198.415594 238.332530 198.415594 0.000000 -0.000000 1.000000 1.000000 1.000000
114 1 235.769182 127.128801 -21.200608 127.128801 -0.000000 -0.000000 1.000000 1.000000 1.000000
115 1 149.546783 5.295578 149.546783 5.295578 0.000000 -0.000000 1.000000 1.000000 1.000000
116 1 24.080842 58.655328 24.080842 58.655328 -0.000000 0.000000 1.000000 1.000000 1.000000
117 1 14.438385 1.674945 271.408175 258.644735 -0.000000 0.000000 1.000000 1.000000 1.000000
118 1 112.246916 128.233087 112.246916 128.233087 0.000000 -0.000000 1.000000 1.000000 1.000000
119 1 18.332214 122.591094 18.332214 122.591094 -0.000000 0.000000 1.000000 1.000000 1.000000
120 1 84.600451 90.555043 84.600451 90.555043 -0.000000 0.000000 1.000000 1.000000 1.000000
121 1 4.841713 17.691115 4.841713 17.691115 0.000000 0.000000 1.000000 1.000000 1.000000
122 1 62.953694 63.439082 62.953694 63.439082 0.000000 0.000000 1.000000 1.000000 1.000000
123 1 162.091112 251.563773 162.091112 251.563773 -0.000000 0.000000 1.000000 1.000000 1.000000
124 1 2.536154 161.172056 2.536154 161.172056 -0.000000 -0.000000 1.000000 1.000000 1.000000
125 1 96.127791 238.518804 96.127791 238.518804 0.000000 0.000000 1.000000 1.000000 1.000000
126 1 103.770579 157.762587 103.770579 157.762587 0.000000 -0.000000 1.000000 1.000000 1.000000
127 1 244.936816 93.446084 -12.032974 93.446084 -0.000000 -0.000000 1.000000 1.000000 1.000000
128 1 37.435059 34.181309 37.435059 34.181309 -0.000000 -0.000000 1.000000 1.000000 1.000000
129 1 111.611217 9.847556 111.611217 9.847556 0.000000 0.000000 1.000000 1.000000 1.000000
130 1 194.051906 184.158820 194.051906 184.158820 -0.000000 -0.000000 1.000000 1.000000 1.000000
131 1 220.499024 197.457953 220.499024 197.457953 -0.000000 -0.000000 1.000000 1.000000 1.000000
132 1 45.072319 167.094435 45.072319 167.094435 -0.000000 -0.000000 1.000000 1.000000 1.000000
133 1 190.465352 119.143157 190.465352 119.143157 -0.000000 0.000000 1.000000 1.000000 1.000000
134 1 254.738011 200.279289 -2.231779 200.279289 -0.000000 0.000000 1.000000 1.000000 1.000000
135 1 32.191203 11.225853 32.191203 11.225853 0.000000 0.000000 1.000000 1.000000 1.000000
136 1 93.047898 154.342060 93.047898 154.342060 -0.000000 -0.000000 1.000000 1.000000 1.000000
137 1 49.742147 156.929483 49.742147 156.929483 -0.000000 0.000000 1.000000 1.000000 1.000000
138 1 194.464013 57.646717 194.464013 57.646717 0.000000 0.000000 1.000000 1.000000 1.000000
139 1 1.255886 117.691296 258.225676 117.691296 0.000000 -0.000000 1.000000 1.000000 1.000000
140 1 53.208129 16.325611 53.208129 16.325611 -0.000000 0.000000 1.000000 1.000000 1.000000
141 1 211.326452 164.928060 211.326452 164.928060 0.000000 -0.000000 1.000000 1.000000 1.000000
142 1 164.768540 160.887204 164.768540 160.887204 -0.000000 0.000000 1.000000 1.000000 1.000000
143 1 196.158614 130.116138 196.158614 130.116138 0.000000 -0.000000 1.000000 1.000000 1.000000
144 1 219.922805 170.773262 219.922805 170.773262 0.000000 0.000000 1.000000 1.000000 1.000000
145 1 96.151901 207.745797 96.151901 207.745797 -0.000000 0.000000 1.000000 1.000000 1.000000
146 1 230.789599 44.360745 230.789599 44.360745 -0.000000 0.000000 1.000000 1.000000 1.000000
147 1 161.845388 105.835815 161.845388 105.835815 -0.000000 0.000000 1.000000 1.000000 1.000000
148 1 100.584727 162.108671 100.584727 162.108671 -0.000000 -0.000000 1.000000 1.000000 1.000000
149 1 58.054658 164.567035 58.054658 164.567035 -0.000000 0.000000 1.000000 1.000000 1.000000
150 1 191.163242 49.283440 191.163242 49.283440 -0.000000 0.000000 1.000000 1.000000 1.000000
151 1 145.754571 64.168148 145.754571 64.168148 0.000000 -0.000000 1.000000 1.000000 1.000000
152 1 195.364392 123.574661 195.364392 123.574661 0.000000 0.000000 1.000000 1.000000 1.000000
153 1 90.477870 188.897853 90.477870 188.897853 -0.000000 -0.000000 1.000000 1.000000 1.000000
154 1 71.806729 194.575290 71.806729 194.575290 0.000000 -0.000000 1.000000 1.000000 1.000000
155 1 75.513708 14.926890 75.513708 14.926890 -0.000000 0.000000 1.000000 1.000000 1.000000
156 1 19.800850 50.628666 19.800850 50.628666 0.000000 0.000000 1.000000 1.000000 1.000000
157 1 142.257734 143.392883 142.257734 143.392883 -0.000000 0.000000 1.000000 1.000000 1.000000
158 1 239.018468 119.133504 239.018468 119.133504 0.000000 -0.000000 1.000000 1.000000 1.000000
159 1 162.453656 75.598616 162.453656 75.598616 -0.000000 0.000000 1.000000 1.000000 1.000000
160 1 171.695296 30.983494 171.695296 30.983494 0.000000 -0.000000 1.000000 1.000000 1.000000
161 1 134.243064 150.802271 134.243064 150.802271 0.000000 -0.000000 1.000000 1.000000 1.000000
162 1 49.133048 72.243496 49.133048 72.243496 0.000000 0.000000 1.000000 1.000000 1.000000
163 1 252.483741 4.467845 252.483741 261.437635 -0.000000 -0.000000 1.000000 1.000000 1.000000
164 1 165.493106 48.162256 165.493106 48.162256 0.000000 0.000000 1.000000 1.000000 1.000000
165 1 172.157977 51.259549 172.157977 51.259549 -0.000000 0.000000 1.000000 1.000000 1.000000
166 1 105.358804 127.380359 105.358804 127.380359 0.000000 -0.000000 1.000000 1.000000 1.000000
167 1 4.590715 182.683597 4.590715 182.683597 -0.000000 0.000000 1.000000 1.000000 1.000000
168 1 214.352344 159.261167 214.352344 159.261167 -0.000000 -0.000000 1.000000 1.000000 1.000000
169 1 123.472126 29.679667 123.472126 29.679667 -0.000000 0.000000 1.000000 1.000000 1.000000
170 1 37.143592 72.623043 37.143592 72.623043 -0.000000 0.000000 1.000000 1.000000 1.000000
171 1 223.306736 231.949288 223.306736 231.949288 -0.000000 0.000000 1.000000 1.000000 1.000000
172 1 86.109352 245.783581 86.109352 245.783581 0.000000 0.000000 1.000000 1.000000 1.000000
173 1 190.564379 69.384113 190.564379 69.384113 -0.000000 0.000000 1.000000 1.000000 1.000000
174 1 207.359267 211.286511 207.359267 211.286511 0.000000 -0.000000 1.000000 1.000000 1.000000
175 1 234.246480 96.120913 234.246480 96.120913 0.000000 0.000000 1.000000 1.000000 1.000000
176 1 132.493781 224.596857 132.493781 224.596857 -0.000000 0.000000 1.000000 1.000000 1.000000
177 1 191.185644 221.478990 191.185644 221.478990 -0.000000 -0.000000 1.000000 1.000000 1.000000
178 1 149.494997 57.918099 149.494997 57.918099 -0.000000 0.000000 1.000000 1.000000 1.000000
179 1 7.148201 75.618381 264.117991 75.618381 -0.000000 0.000000 1.000000 1.000000 1.000000
180 1 0.336711 186.153374 0.336711 186.153374 0.000000 0.000000 1.000000 1.000000 1.000000
181 1 210.036291 120.451676 210.036291 120.451676 -0.000000 0.000000 1.000000 1.000000 1.000000
182 1 15.489818 168.798101 15.489818 168.798101 0.000000 -0.000000 1.000000 1.000000 1.000000
183 1 159.225048 48.604510 159.225048 48.604510 0.000000 -0.000000 1.000000 1.000000 1.000000
184 1 195.074091 126.420573 195.074091 126.420573 0.000000 0.000000 1.000000 1.000000 1.000000
185 1 184.698546 158.758857 184.698546 158.758857 -0.000000 -0.000000 1.000000 1.000000 1.000000
186 1 254.761584 60.484199 254.761584 60.484199 -0.000000 -0.000000 1.000000 1.000000 1.000000
187 1 19.461623 137.784697 19.461623 137.784697 -0.000000 -0.000000 1.000000 1.000000 1.000000
188 1 170.724511 147.154139 170.724511 147.154139 -0.000000 0.000000 1.000000 1.000000 1.000000
189 1 107.549457 130.827075 107.549457 130.827075 0.000000 0.000000 1.000000 1.000000 1.000000
190 1 243.123631 210.136116 243.123631 210.136116 0.000000 0.000000 1.000000 1.000000 1.000000
191 1 30.745077 15.527830 30.745077 15.527830 0.000000 -0.000000 1.000000 1.000000 1.000000
192 1 251.539095 237.385404 251.539095 237.385404 -0.000000 -0.000000 1.000000 1.000000 1.000000
193 1 241.134166 147.811400 241.134166 147.811400 -0.000000 -0.000000 1.000000 1.000000 1.000000
194 1 239.217028 196.330452 239.217028 196.330452 -0.000000 0.000000 1.000000 1.000000 1.000000
195 1 184.059602 64.831644 184.059602 64.831644 -0.000000 0.000000 1.000000 1.000000 1.000000
196 1 66.795529 124.059970 66.795529 124.059970 -0.000000 -0.000000 1.000000 1.000000 1.000000
197 1 129.993971 24.595096 129.993971 24.595096 -0.000000 0.000000 1.000000 1.000000 1.000000
198 1 184.716050 172.014313 184.716050 172.014313 -0.000000 0.000000 1.000000 1.000000 1.000000
199 1 140.937316 7.415629 140.937316 264.385419 -0.000000 -0.000000 1.000000 1.000000 1.000000
200 1 12.302240 54.659540 12.302240 54.659540 0.000000 -0.000000 1.000000 1.000000 1.000000
201 1 4.328659 75.803639 4.328659 75.803639 -0.000000 0.000000 1.000000 1.000000 1.000000
202 1 233.869247 103.152305 233.869247 103.152305 0.000000 -0.000000 1.000000 1.000000 1.000000
203 1 73.635028 196.757156 73.635028 196.757156 -0.000000 0.000000 1.000000 1.000000 1.000000
204 1 136.147523 76.216961 136.147523 76.216961 -0.000000 0.000000 1.000000 1.000000 1.000000
205 1 168.612615 142.260776 168.612615 142.260776 0.000000 0.000000 1.000000 1.000000 1.000000
206 1 177.039501 54.114892 177.039501 54.114892 0.000000 0.000000 1.000000 1.000000 1.000000
207 1 218.327249 138.136864 218.327249 138.136864 -0.000000 0.000000 1.000000 1.000000 1.000000
208 1 31.533420 94.034675 31.533420 94.034675 -0.000000 0.000000 1.000000 1.000000 1.000000
209 1 167.167936 175.922619 167.167936 175.922619 0.000000 -0.000000 1.000000 1.000000 1.000000
210 1 78.559634 252.748559 78.559634 -4.221231 0.000000 -0.000000 1.000000 1.000000 1.000000
211 1 147.141370 99.705640 147.141370 99.705640 -0.000000 -0.000000 1.000000 1.000000 1.000000
212 1 128.421973 74.542066 128.421973 74.542066 0.000000 -0.000000 1.000000 1.000000 1.000000
213 1 127.628166 144.755220 127.628166 144.755220 -0.000000 0.000000 1.000000 1.000000 1.000000
214 1 111.099620 18.608924 111.099620 18.608924 0.000000 -0.000000 1.000000 1.000000 1.000000
215 1 240.863326 117.889079 240.863326 117.889079 0.000000 -0.000000 1.000000 1.000000 1.000000
216 1 207.453495 56.789674 207.453495 56.789674 0.000000 0.000000 1.000000 1.000000 1.000000
217 1 77.943321 210.349709 77.943321 210.349709 0.000000 -0.000000 1.000000 1.000000 1.000000
218 1 134.766213 16.580490 134.766213 16.580490 -0.000000 -0.000000 1.000000 1.000000 1.000000
219 1 65.321735 126.118361 65.321735 126.118361 -0.000000 -0.000000 1.000000 1.000000 1.000000
220 1 184.171240 21.742603 184.171240 21.742603 -0.000000 -0.000000 1.000000 1.000000 1.000000
221 1 120.927038 127.328220 120.927038 127.328220 0.000000 0.000000 1.000000 1.000000 1.000000
222 1 145.773070 114.073566 145.773070 114.073566 0.000000 0.000000 1.000000 1.000000 1.000000
223 1 241.664938 124.303840 241.664938 124.303840 -0.000000 -0.000000 1.000000 1.000000 1.000000
224 1 90.193940 142.756176 90.193940 142.756176 -0.000000 -0.000000 1.000000 1.000000 1.000000
225 1 155.756401 94.702259 155.756401 94.702259 0.000000 0.000000 1.000000 1.000000 1.000000
226 1 150.428623 18.921826 150.428623 275.891616 0.000000 0.000000 1.000000 1.000000 1.000000
227 1 126.676705 233.846093 126.676705 233.846093 -0.000000 0.000000 1.000000 1.000000 1.000000
228 1 187.676484 117.389688 187.676484 117.389688 0.000000 0.000000 1.000000 1.000000 1.000000
229 1 11.789972 29.777940 11.789972 29.777940 -0.000000 -0.000000 1.000000 1.000000 1.000000
230 1 17.898491 144.420406 17.898491 144.420406 -0.000000 0.000000 1.000000 1.000000 1.000000
231 1 81.116705 216.877759 81.116705 216.877759 0.000000 0.000000 1.000000 1.000000 1.000000
232 1 246.194257 37.888038 246.194257 37.888038 0.000000 -0.000000 1.000000 1.000000 1.000000
233 1 169.845823 99.010206 169.845823 99.010206 -0.000000 0.000000 1.000000 1.000000 1.000000
234 1 53.566304 86.775656 53.566304 86.775656 0.000000 0.000000 1.000000 1.000000 1.000000
235 1 66.790390 25.141648 66.790390 25.141648 -0.000000 -0.000000 1.000000 1.000000 1.000000
236 1 108.565848 17.403123 108.565848 17.403123 0.000000 0.000000 1.000000 1.000000 1.000000
237 1 26.860513 231.927351 26.860513 231.927351 -0.000000 -0.000000 1.000000 1.000000 1.000000
238 1 119.591146 43.130923 119.591146 43.130923 0.000000 -0.000000 1.000000 1.000000 1.000000
239 1 184.573752 156.354469 184.573752 156.354469 0.000000 -0.000000 1.000000 1.000000 1.000000
240 1 199.805532 235.937508 199.805532 235.937508 -0.000000 -0.000000 1.000000 1.000000 1.000000
241 1 249.619966 215.899383 -7.349824 215.899383 -0.000000 -0.000000 1.000000 1.000000 1.000000
242 1 0.004782 167.331106 0.004782 167.331106 -0.000000 -0.000000 1.000000 1.000000 1.000000
243 1 75.349444 178.986355 75.349444 178.986355 0.000000 0.000000 1.000000 1.000000 1.000000
244 1 115.491535 215.937537 115.491535 215.937537 0.000000 -0.000000 1.000000 1.000000 1.000000
245 1 226.139169 143.224789 226.139169 143.224789 0.000000 0.000000 1.000000 1.000000 1.000000
246 1 110.089734 128.830835 110.089734 128.830835 -0.000000 -0.000000 1.000000 1.000000 1.000000
247 1 22.098139 191.262406 22.098139 191.262406 -0.000000 -0.000000 1.000000 1.000000 1.000000
248 1 21.276631 84.848061 21.276631 84.848061 -0.000000 0.000000 1.000000 1.000000 1.000000
249 1 225.967088 51.315535 225.967088 51.315535 -0.000000 0.000000 1.000000 1.000000 1.000000
250 1 126.439758 185.030740 126.439758 185.030740 -0.000000 0.000000 1.000000 1.000000 1.000000
251 1 82.288669 0.029185 82.288669 0.029185 0.000000 -0.000000 1.000000 1.000000 1.000000
252 1 133.518320 204.053146 133.518320 204.053146 0.000000 -0.000000 1.000000 1.000000 1.000000
253 1 120.487362 16.731472 120.487362 16.731472 0.000000 -0.000000 1.000000 1.000000 1.000000
254 1 160.392026 154.289958 160.392026 154.289958 0.000000 0.000000 1.000000 1.000000 1.000000
255 1 18.639005 127.369909 18.639005 127.369909 -0.000000 -0.000000 1.000000 1.000000 1.000000
256 1 129.871789 57.689051 129.871789 57.689051 -0.000000 0.000000 1.000000 1.000000 1.000000
257 1 182.870304 209.015469 182.870304 209.015469 -0.000000 0.000000 1.000000 1.000000 1.000000
258 1 63.976814 202.542799 63.976814 202.542799 0.000000 0.000000 1.000000 1.000000 1.000000
259 1 66.213160 30.593494 66.213160 30.593494 0.000000 0.000000 1.000000 1.000000 1.000000
260 1 46.755702 91.366144 46.755702 91.366144 -0.000000 -0.000000 1.000000 1.000000 1.000000
261 1 167.229926 13.718721 167.229926 13.718721 -0.000000 0.000000 1.000000 1.000000 1.000000
262 1 221.683762 174.050862 221.683762 174.050862 0.000000 -0.000000 1.000000 1.000000 1.000000
263 1 54.434519 153.925644 54.434519 153.925644 -0.000000 0.000000 1.000000 1.000000 1.000000
264 1 148.452922 177.878329 148.452922 177.878329 0.000000 -0.000000 1.000000 1.000000 1.000000
265 1 35.319607 158.398649 35.319607 158.398649 -0.000000 0.000000 1.000000 1.000000 1.000000
266 1 62.110241 156.229833 62.110241 156.229833 -0.000000 0.000000 1.000000 1.000000 1.000000
267 1 69.580538 143.731142 69.580538 143.731142 -0.000000 0.000000 1.000000 1.000000 1.000000
268 1 40.159847 75.759891 40.159847 75.759891 -0.000000 -0.000000 1.000000 1.000000 1.000000
269 1 147.294925 38.087972 147.294925 38.087972 0.000000 0.000000 1.000000 1.000000 1.000000
270 1 52.659602 156.079836 52.659602 156.079836 0.000000 0.000000 1.000000 1.000000 1.000000
271 1 151.376206 225.630862 151.376206 225.630862 -0.000000 0.000000 1.000000 1.000000 1.000000
272 1 2.985490 157.699633 2.985490 157.699633 -0.000000 -0.000000 1.000000 1.000000 1.000000
273 1 207.405623 50.220611 207.405623 50.220611 -0.000000 0.000000 1.000000 1.000000 1.000000
274 1 140.946881 154.510948 140.946881 154.510948 0.000000 -0.000000 1.000000 1.000000 1.000000
275 1 0.924332 244.428179 0.924332 244.428179 0.000000 -0.000000 1.000000 1.000000 1.000000
276 1 212.195010 202.624887 212.195010 202.624887 -0.000000 0.000000 1.000000 1.000000 1.000000
277 1 186.643848 123.813583 186.643848 123.813583 0.000000 -0.000000 1.000000 1.000000 1.000000
278 1 148.485353 23.646008 148.485353 23.646008 -0.000000 0.000000 1.000000 1.000000 1.000000
279 1 7.102311 248.928011 7.102311 -8.041779 0.000000 0.000000 1.000000 1.000000 1.000000
280 1 163.242580 205.601309 163.242580 205.601309 0.000000 0.000000 1.000000 1.000000 1.000000
281 1 158.372231 142.116717 158.372231 142.116717 0.000000 -0.000000 1.000000 1.000000 1.000000
282 1 248.772344 242.622427 248.772344 242.622427 -0.000000 -0.000000 1.000000 1.000000 1.000000
283 1 56.086817 54.672767 56.086817 54.672767 0.000000 -0.000000 1.000000 1.000000 1.000000
284 1 53.365564 165.485353 53.365564 165.485353 -0.000000 0.000000 1.000000 1.000000 1.000000
285 1 182.441661 176.218178 182.441661 176.218178 -0.000000 -0.000000 1.000000 1.000000 1.000000
286 1 94.010661 232.348987 94.010661 232.348987 -0.000000 0.000000 1.000000 1.000000 1.000000
287 1 61.432833 122.545600 61.432833 122.545600 -0.000000 -0.000000 1.000000 1.000000 1.000000
288 1 88.942223 109.248611 88.942223 109.248611 -0.000000 0.000000 1.000000 1.000000 1.000000
289 1 118.277259 58.198355 118.277259 58.198355 -0.000000 0.000000 1.000000 1.000000 1.000000
290 1 98.150487 60.880398 98.150487 60.880398 0.000000 -0.000000 1.000000 1.000000 1.000000
291 1 244.195053 234.948030 244.195053 234.948030 0.000000 0.000000 1.000000 1.000000 1.000000
292 1 105.857621 211.504769 105.857621 211.504769 0.000000 -0.000000 1.000000 1.000000 1.000000
293 1 248.436579 121.636444 248.436579 121.636444 -0.000000 0.000000 1.000000 1.000000 1.000000
294 1 24.099697 128.275159 24.099697 128.275159 0.000000 -0.000000 1.000000 1.000000 1.000000
295 1 132.065384 201.394115 132.065384 201.394115 0.000000 -0.000000 1.000000 1.000000 1.000000
296 1 203.904793 56.346767 203.904793 56.346767 0.000000 0.000000 1.000000 1.000000 1.000000
297 1 164.807730 61.420673 164.807730 61.420673 0.000000 -0.000000 1.000000 1.000000 1.000000
298 1 169.378110 135.464629 169.378110 135.464629 0.000000 0.000000 1.000000 1.000000 1.000000
299 1 78.312282 118.353098 78.312282 118.353098 0.000000 0.000000 1.000000 1.000000 1.000000
300 1 103.387820 71.347489 103.387820 71.347489 -0.000000 0.000000 1.000000 1.000000 1.000000
301 1 235.070485 205.236252 235.070485 205.236252 -0.000000 0.000000 1.000000 1.000000 1.000000
302 1 68.970381 249.756948 68.970381 249.756948 0.000000 0.000000 1.000000 1.000000 1.000000
303 1 41.435486 211.856351 41.435486 211.856351 -0.000000 0.000000 1.000000 1.000000 1.000000
304 1 36.161971 238.799733 36.161971 238.799733 -0.000000 -0.000000 1.000000 1.000000 1.000000
305 1 54.777018 84.679743 54.777018 84.679743 -0.000000 0.000000 1.000000 1.000000 1.000000
306 1 213.658190 200.205217 213.658190 200.205217 0.000000 0.000000 1.000000 1.000000 1.000000
307 1 91.797704 9.116678 91.797704 9.116678 -0.000000 0.000000 1.000000 1.000000 1.000000
308 1 71.390556 129.255700 71.390556 129.255700 0.000000 0.000000 1.000000 1.000000 1.000000
309 1 32.472082 39.422965 32.472082 39.422965 0.000000 0.000000 1.000000 1.000000 1.000000
310 1 197.005828 110.836381 197.005828 110.836381 -0.000000 -0.000000 1.000000 1.000000 1.000000
311 1 126.288626 141.252122 126.288626 141.252122 -0.000000 -0.000000 1.000000 1.000000 1.000000
312 1 31.475889 79.405188 31.475889 79.405188 0.000000 -0.000000 1.000000 1.000000 1.000000
313 1 125.637024 96.948377 125.637024 96.948377 0.000000 -0.000000 1.000000 1.000000 1.000000
314 1 193.497283 88.037324 193.497283 88.037324 -0.000000 -0.000000 1.000000 1.000000 1.000000
315 1 3.648954 165.020187 3.648954 165.020187 -0.000000 0.000000 1.000000 1.000000 1.000000
316 1 225.177683 130.329832 225.177683 130.329832 0.000000 -0.000000 1.000000 1.000000 1.000000