ITEM: TIMESTEP
900.000000
ITEM: NUMBER OF ATOMS
5000
ITEM: BOX BOUNDS xy xz yz
0 302.895423 0
0 302.895423 0
0 2 0
ITEM: ATOMS id type x y xu yu vx vy radius m z
0 1 270.075010 50.544462 270.075010 50.544462 -0.000000 -0.000000 1.000000 1.000000 1.000000
1 1 219.725558 87.573687 219.725558 87.573687 0.000000 -0.000000 1.000000 1.000000 1.000000
2 1 56.142382 68.516238 56.142382 68.516238 -0.000000 -0.000000 1.000000 1.000000 1.000000
3 1 279.631295 225.341733 279.631295 225.341733 -0.000000 0.000000 1.000000 1.000000 1.000000
4 1 14.367034 53.391006 14.367034 53.391006 -0.000000 -0.000000 1.000000 1.000000 1.000000
5 1 146.829165 89.167485 146.829165 89.167485 0.000000 -0.000000 1.000000 1.000000 1.000000
6 1 161.170463 216.604913 161.170463 216.604913 0.000000 -0.000000 1.000000 1.000000 1.000000
7 1 169.449073 237.960121 169.449073 237.960121 0.000000 0.000000 1.000000 1.000000 1.000000
8 1 225.096535 81.329993 225.096535 81.329993 0.000000 0.000000 1.000000 1.000000 1.000000
9 1 40.374089 268.988500 40.374089 268.988500 -0.000000 -0.000000 1.000000 1.000000 1.000000
10 1 286.576376 220.179259 286.576376 220.179259 -0.000000 -0.000000 1.000000 1.000000 1.000000
11 1 277.300964 247.451155 277.300964 247.451155 0.000000 -0.000000 1.000000 1.000000 1.000000
12 1 21.799351 193.655615 21.799351 193.655615 -0.000000 0.000000 1.000000 1.000000 1.000000
13 1 66.459340 143.097200 66.459340 143.097200 0.000000 -0.000000 1.000000 1.000000 1.000000
14 1 203.229172 41.024044 203.229172 41.024044 -0.000000 0.000000 1.000000 1.000000 1.000000
15 1 200.878621 175.338176 200.878621 175.338176 -0.000000 0.000000 1.000000 1.000000 1.000000
16 1 166.985003 255.751800 166.985003 255.751800 0.000000 -0.000000 1.000000 1.000000 1.000000
17 1 164.905860 34.153764 164.905860 34.153764 -0.000000 -0.000000 1.000000 1.000000 1.000000
18 1 33.865176 20.150742 33.865176 20.150742 0.000000 0.000000 1.000000 1.000000 1.000000
19 1 209.356833 26.417765 209.356833 26.417765 0.000000 -0.000000 1.000000 1.000000 1.000000
20 1 99.954061 147.174334 99.954061 147.174334 -0.000000 0.000000 1.000000 1.000000 1.000000
21 1 229.797934 291.290052 229.797934 291.290052 0.000000 0.000000 1.000000 1.000000 1.000000
22 1 269.027979 63.620701 269.027979 63.620701 -0.000000 -0.000000 1.000000 1.000000 1.000000
23 1 262.094757 123.906180 262.094757 123.906180 -0.000000 0.000000 1.000000 1.000000 1.000000
24 1 182.627695 139.114676 182.627695 139.114676 0.000000 0.000000 1.000000 1.000000 1.000000
25 1 201.160223 37.507693 201.160223 37.507693 0.000000 -0.000000 1.000000 1.000000 1.000000
26 1 160.765189 213.646064 160.765189 213.646064 0.000000 -0.000000 1.000000 1.000000 1.000000
27 1 223.855734 225.423481 223.855734 225.423481 0.000000 0.000000 1.000000 1.000000 1.000000
28 1 172.448538 93.324752 172.448538 93.324752 -0.000000 -0.000000 1.000000 1.000000 1.000000
29 1 297.471643 90.497845 297.471643 90.497845 0.000000 -0.000000 1.000000 1.000000 1.000000
30 1 204.332423 1.019482 204.332423 303.914905 -0.000000 -0.000000 1.000000 1.000000 1.000000
31 1 64.021269 105.437388 64.021269 105.437388 0.000000 -0.000000 1.000000 1.000000 1.000000
32 1 133.369385 139.046525 133.369385 139.046525 -0.000000 -0.000000 1.000000 1.000000 1.000000
33 1 53.737972 272.831941 53.737972 272.831941 -0.000000 0.000000 1.000000 1.000000 1.000000
34 1 250.767597 3.958059 250.767597 3.958059 0.000000 -0.000000 1.000000 1.000000 1.000000
35 1 267.867051 166.951669 267.867051 166.951669 -0.000000 -0.000000 1.000000 1.000000 1.000000
36 1 18.644473 230.167782 18.644473 230.167782 -0.000000 0.000000 1.000000 1.000000 1.000000
37 1 21.644236 160.577226 21.644236 160.577226 -0.000000 -0.000000 1.000000 1.000000 1.000000
38 1 135.867306 40.408580 135.867306 40.408580 0.000000 -0.000000 1.000000 1.000000 1.000000
39 1 211.761914 278.535843 211.761914 278.535843 0.000000 0.000000 1.000000 1.000000 1.000000
40 1 245.568111 202.247502 245.568111 202.247502 -0.000000 -0.000000 1.000000 1.000000 1.000000
41 1 172.464018 222.298028 172.464018 222.298028 -0.000000 0.000000 1.000000 1.000000 1.000000
42 1 297.395570 244.018521 297.395570 244.018521 0.000000 0.000000 1.000000 1.000000 1.000000
43 1 265.359440 211.104940 265.359440 211.104940 -0.000000 -0.000000 1.000000 1.000000 1.000000
44 1 172.457433 101.251473 172.457433 101.251473 -0.000000 0.000000 1.000000 1.000000 1.000000
45 1 290.908097 272.736758 290.908097 272.736758 -0.000000 -0.000000 1.000000 1.000000 1.000000
46 1 226.932597 31.710659 226.932597 31.710659 -0.000000 0.000000 1.000000 1.000000 1.000000
47 1 198.499144 125.083304 198.499144 125.083304 -0.000000 -0.000000 1.000000 1.000000 1.000000
48 1 127.288746 169.461002 127.288746 169.461002 -0.000000 -0.000000 1.000000 1.000000 1.000000
49 1 245.790966 172.916842 245.790966 172.916842 -0.000000 -0.000000 1.000000 1.000000 1.000000
50 1 224.395694 246.629541 224.395694 246.629541 -0.000000 0.000000 1.000000 1.000000 1.000000
51 1 262.962802 158.787618 262.962802 158.787618 0.000000 0.000000 1.000000 1.000000 1.000000
52 1 132.923613 250.504337 132.923613 250.504337 -0.000000 0.000000 1.000000 1.000000 1.000000
53 1 17.948797 193.001695 17.948797 193.001695 -0.000000 -0.000000 1.000000 1.000000 1.000000
54 1 216.369261 283.890147 216.369261 -19.005276 0.000000 -0.000000 1.000000 1.000000 1.000000
55 1 218.711741 281.173000 218.711741 281.173000 0.000000 -0.000000 1.000000 1.000000 1.000000
56 1 19.885556 102.882596 19.885556 102.882596 0.000000 -0.000000 1.000000 1.000000 1.000000
57 1 70.079275 70.920618 70.079275 70.920618 0.000000 0.000000 1.000000 1.000000 1.000000
58 1 168.120282 193.812756 168.120282 193.812756 0.000000 0.000000 1.000000 1.000000 1.000000
59 1 174.650800 170.240446 174.650800 170.240446 -0.000000 0.000000 1.000000 1.000000 1.000000
60 1 224.813916 85.088565 224.813916 85.088565 0.000000 0.000000 1.000000 1.000000 1.000000
61 1 208.210090 4.306132 208.210090 4.306132 -0.000000 -0.000000 1.000000 1.000000 1.000000
62 1 45.422504 246.658510 45.422504 246.658510 -0.000000 0.000000 1.000000 1.000000 1.000000
63 1 236.443859 225.244817 236.443859 225.244817 0.000000 0.000000 1.000000 1.000000 1.000000
64 1 138.042351 72.040719 138.042351 72.040719 -0.000000 -0.000000 1.000000 1.000000 1.000000
65 1 31.924803 237.293005 31.924803 237.293005 0.000000 0.000000 1.000000 1.000000 1.000000
66 1 302.440491 292.928409 -0.454932 292.928409 0.000000 -0.000000 1.000000 1.000000 1.000000
67 1 100.176674 250.231069 100.176674 250.231069 0.000000 0.000000 1.000000 1.000000 1.000000
68 1 235.438781 37.136366 235.438781 37.136366 0.000000 0.000000 1.000000 1.000000 1.000000
69 1 93.614012 6.038586 93.614012 6.038586 0.000000 0.000000 1.000000 1.000000 1.000000
70 1 63.089018 300.927498 63.089018 300.927498 -0.000000 -0.000000 1.000000 1.000000 1.000000
71 1 266.672183 74.094242 266.672183 74.094242 -0.000000 -0.000000 1.000000 1.000000 1.000000
72 1 6.949069 26.053786 6.949069 26.053786 -0.000000 -0.000000 1.000000 1.000000 1.000000
73 1 29.029535 80.185305 29.029535 80.185305 -0.000000 -0.000000 1.000000 1.000000 1.000000
74 1 91.359836 44.124371 91.359836 44.124371 0.000000 -0.000000 1.000000 1.000000 1.000000
75 1 22.610431 17.956030 22.610431 17.956030 0.000000 0.000000 1.000000 1.000000 1.000000
76 1 269.946722 217.905242 269.946722 217.905242 0.000000 0.000000 1.000000 1.000000 1.000000
77 1 48.656176 84.747520 48.656176 84.747520 -0.000000 0.000000 1.000000 1.000000 1.000000
78 1 148.507569 57.328125 148.507569 57.328125 -0.000000 0.000000 1.000000 1.000000 1.000000
79 1 54.935247 250.150908 54.935247 250.150908 0.000000 0.000000 1.000000 1.000000 1.000000
80 1 290.804538 80.547257 290.804538 80.547257 0.000000 0.000000 1.000000 1.000000 1.000000
81 1 7.287307 86.487336 7.287307 86.487336 0.000000 0.000000 1.000000 1.000000 1.000000
82 1 249.718863 2.147443 249.718863 2.147443 0.000000 -0.000000 1.000000 1.000000 1.000000
83 1 155.428025 283.548357 155.428025 283.548357 -0.000000 -0.000000 1.000000 1.000000 1.000000
84 1 35.510831 113.386351 35.510831 113.386351 0.000000 -0.000000 1.000000 1.000000 1.000000
85 1 224.443720 235.212396 224.443720 235.212396 0.000000 0.000000 1.000000 1.000000 1.000000
86 1 32.546049 71.555894 32.546049 71.555894 -0.000000 -0.000000 1.000000 1.000000 1.000000
87 1 172.602306 245.989748 172.602306 245.989748 -0.000000 0.000000 1.000000 1.000000 1.000000
88 1 250.199866 137.092884 250.199866 137.092884 0.000000 0.000000 1.000000 1.000000 1.000000
89 1 52.545599 210.247247 52.545599 210.247247 0.000000 -0.000000 1.000000 1.000000 1.000000
90 1 189.724741 227.118316 189.724741 227.118316 0.000000 -0.000000 1.000000 1.000000 1.000000
91 1 102.026423 252.059549 102.026423 252.059549 -0.000000 0.000000 1.000000 1.000000 1.000000
92 1 245.471822 207.445737 245.471822 207.445737 0.000000 0.000000 1.000000 1.000000 1.000000
93 1 280.788491 75.159400 280.788491 75.159400 -0.000000 -0.000000 1.000000 1.000000 1.000000
94 1 37.550182 176.689291 37.550182 176.689291 -0.000000 0.000000 1.000000 1.000000 1.000000
95 1 60.167682 58.144599 60.167682 58.144599 0.000000 -0.000000 1.000000 1.000000 1.000000
96 1 71.519708 257.796153 71.519708 257.796153 -0.000000 -0.000000 1.000000 1.000000 1.000000
97 1 124.465404 165.292744 124.465404 165.292744 0.000000 0.000000 1.000000 1.000000 1.000000
98 1 134.830712 50.787991 134.830712 50.787991 0.000000 0.000000 1.000000 1.000000 1.000000
99 1 287.823169 107.462148 287.823169 107.462148 0.000000 0.000000 1.000000 1.000000 1.000000
100 1 28.930757 130.828371 28.930757 130.828371 0.000000 -0.000000 1.000000 1.000000 1.000000
101 1 184.933822 200.615408 184.933822 200.615408 -0.000000 -0.000000 1.000000 1.000000 1.000000
102 1 56.485666 98.490313 56.485666 98.490313 0.000000 -0.000000 1.000000 1.000000 1.000000
103 1 132.897823 144.350235 132.897823 144.350235 -0.000000 0.000000 1.000000 1.000000 1.000000
104 1 50.707848 92.595873 50.707848 92.595873 -0.000000 -0.000000 1.000000 1.000000 1.000000
105 1 122.859340 60.169113 122.859340 60.169113 0.000000 0.000000 1.000000 1.000000 1.000000
106 1 262.552853 222.511132 262.552853 222.511132 0.000000 0.000000 1.000000 1.000000 1.000000
107 1 89.484982 67.109656 89.484982 67.109656 0.000000 0.000000 1.000000 1.000000 1.000000
108 1 178.863951 128.237135 178.863951 128.237135 0.000000 -0.000000 1.000000 1.000000 1.000000
109 1 262.908547 213.788547 262.908547 213.788547 0.000000 0.000000 1.000000 1.000000 1.000000
110 1 246.005866 63.118260 246.005866 63.118260 -0.000000 0.000000 1.000000 1.000000 1.000000
111 1 156.158375 249.525920 156.158375 249.525920 -0.000000 -0.000000 1.000000 1.000000 1.000000
112 1 112.765916 262.544729 112.765916 262.544729 -0.000000 0.000000 1.000000 1.000000 1.000000
113 1 69.281626 90.410218 69.281626 90.410218 0.000000 0.000000 1.000000 1.000000 1.000000
114 1 87.081062 11.623030 87.081062 314.518453 -0.000000 0.000000 1.000000 1.000000 1.000000
115 1 10.021452 171.691026 10.021452 171.691026 -0.000000 -0.000000 1.000000 1.000000 1.000000
116 1 73.404573 177.359130 73.404573 177.359130 0.000000 0.000000 1.000000 1.000000 1.000000
117 1 246.708026 97.346822 246.708026 97.346822 0.000000 0.000000 1.000000 1.000000 1.000000
118 1 238.881713 225.602438 238.881713 225.602438 0.000000 0.000000 1.000000 1.000000 1.000000
119 1 167.310383 66.307217 167.310383 66.307217 -0.000000 -0.000000 1.000000 1.000000 1.000000
120 1 265.763046 234.783690 265.763046 234.783690 0.000000 -0.000000 1.000000 1.000000 1.000000
121 1 56.234515 3.230518 56.234515 306.125941 -0.000000 0.000000 1.000000 1.000000 1.000000
122 1 67.822649 179.931052 67.822649 179.931052 0.000000 -0.000000 1.000000 1.000000 1.000000
123 1 175.995420 73.083447 175.995420 73.083447 -0.000000 -0.000000 1.000000 1.000000 1.000000
124 1 144.842435 107.809041 144.842435 107.809041 0.000000 0.000000 1.000000 1.000000 1.000000
125 1 211.319876 143.713699 211.319876 143.713699 0.000000 0.000000 1.000000 1.000000 1.000000
126 1 205.804354 179.757017 205.804354 179.757017 -0.000000 -0.000000 1.000000 1.000000 1.000000
127 1 278.995648 182.079930 278.995648 182.079930 0.000000 -0.000000 1.000000 1.000000 1.000000
128 1 295.887655 8.194988 295.887655 8.194988 0.000000 0.000000 1.000000 1.000000 1.000000
129 1 182.073999 297.048426 182.073999 297.048426 0.000000 -0.000000 1.000000 1.000000 1.000000
130 1 257.497338 131.323451 257.497338 131.323451 -0.000000 -0.000000 1.000000 1.000000 1.000000
131 1 237.778795 59.891591 237.778795 59.891591 -0.000000 -0.000000 1.000000 1.000000 1.000000
132 1 128.851024 283.985598 128.851024 283.985598 -0.000000 0.000000 1.000000 1.000000 1.000000
133 1 98.932058 151.514119 98.932058 151.514119 0.000000 -0.000000 1.000000 1.000000 1.000000
134 1 289.491361 41.005427 289.491361 41.005427 0.000000 -0.000000 1.000000 1.000000 1.000000
135 1 119.083284 206.029593 119.083284 206.029593 0.000000 0.000000 1.000000 1.000000 1.000000
136 1 48.581821 226.982534 48.581821 226.982534 -0.000000 0.000000 1.000000 1.000000 1.000000
137 1 289.644894 266.327503 289.644894 266.327503 -0.000000 -0.000000 1.000000 1.000000 1.000000
138 1 204.858489 219.513384 204.858489 219.513384 0.000000 0.000000 1.000000 1.000000 1.000000
139 1 98.730309 288.971523 98.730309 288.971523 0.000000 0.000000 1.000000 1.000000 1.000000
140 1 182.248485 147.766572 182.248485 147.766572 0.000000 0.000000 1.000000 1.000000 1.000000
141 1 247.506753 107.942420 247.506753 107.942420 -0.000000 0.000000 1.000000 1.000000 1.000000
142 1 102.620452 181.120060 102.620452 181.120060 0.000000 0.000000 1.000000 1.000000 1.000000
143 1 173.037751 260.394410 173.037751 260.394410 0.000000 -0.000000 1.000000 1.000000 1.000000
144 1 164.456662 300.886818 164.456662 -2.008605 0.000000 -0.000000 1.000000 1.000000 1.000000
145 1 220.090765 100.955541 220.090765 100.955541 -0.000000 -0.000000 1.000000 1.000000 1.000000
146 1 99.900156 301.045945 99.900156 -1.849478 0.000000 0.000000 1.000000 1.000000 1.000000
147 1 301.125405 95.675054 301.125405 95.675054 -0.000000 -0.000000 1.000000 1.000000 1.000000
148 1 297.490185 83.594281 -5.405238 83.594281 0.000000 -0.000000 1.000000 1.000000 1.000000
149 1 167.714862 278.381892 167.714862 278.381892 0.000000 -0.000000 1.000000 1.000000 1.000000
150 1 167.903704 287.796394 167.903704 287.796394 -0.000000 -0.000000 1.000000 1.000000 1.000000
151 1 221.438305 174.107298 221.438305 174.107298 0.000000 0.000000 1.000000 1.000000 1.000000
152 1 292.375134 191.656251 -10.520289 191.656251 -0.000000 0.000000 1.000000 1.000000 1.000000
153 1 298.236744 63.212840 -4.658679 63.212840 0.000000 0.000000 1.000000 1.000000 1.000000
154 1 223.453453 244.665642 223.453453 244.665642 -0.000000 0.000000 1.000000 1.000000 1.000000
155 1 222.670440 33.635839 222.670440 33.635839 0.000000 0.000000 1.000000 1.000000 1.000000
156 1 232.346177 202.728157 232.346177 202.728157 -0.000000 0.000000 1.000000 1.000000 1.000000
157 1 219.163627 227.251718 219.163627 227.251718 -0.000000 0.000000 1.000000 1.000000 1.000000
158 1 94.500509 18.456623 94.500509 18.456623 -0.000000 -0.000000 1.000000 1.000000 1.000000
159 1 159.573802 159.230465 159.573802 159.230465 0.000000 0.000000 1.000000 1.000000 1.000000
160 1 170.996190 163.926024 170.996190 163.926024 -0.000000 0.000000 1.000000 1.000000 1.000000
161 1 281.968363 34.500572 281.968363 337.395995 -0.000000 0.000000 1.000000 1.000000 1.000000
162 1 219.585323 90.323403 219.585323 90.323403 -0.000000 -0.000000 1.000000 1.000000 1.000000
163 1 264.838111 43.748135 264.838111 43.748135 -0.000000 0.000000 1.000000 1.000000 1.000000
164 1 50.472976 57.505606 50.472976 57.505606 -0.000000 -0.000000 1.000000 1.000000 1.000000
165 1 72.717570 20.379139 72.717570 20.379139 -0.000000 0.000000 1.000000 1.000000 1.000000
166 1 64.688237 112.857855 64.688237 112.857855 0.000000 -0.000000 1.000000 1.000000 1.000000
167 1 27.613209 270.935255 27.613209 270.935255 -0.000000 -0.000000 1.000000 1.000000 1.000000
168 1 273.587924 65.508175 273.587924 65.508175 0.000000 -0.000000 1.000000 1.000000 1.000000
169 1 261.423138 240.903140 261.423138 240.903140 0.000000 -0.000000 1.000000 1.000000 1.000000
170 1 296.583878 60.913618 -6.311545 60.913618 0.000000 0.000000 1.000000 1.000000 1.000000
171 1 153.497810 74.378007 153.497810 74.378007 -0.000000 0.000000 1.000000 1.000000 1.000000
172 1 20.250377 115.391635 20.250377 115.391635 0.000000 0.000000 1.000000 1.000000 1.000000
173 1 109.774328 47.256555 109.774328 47.256555 0.000000 -0.000000 1.000000 1.000000 1.000000
174 1 74.396312 140.995607 74.396312 140.995607 0.000000 0.000000 1.000000 1.000000 1.000000
175 1 29.991505 281.178635 29.991505 281.178635 -0.000000 0.000000 1.000000 1.000000 1.000000
176 1 49.462137 5.206366 49.462137 5.206366 0.000000 0.000000 1.000000 1.000000 1.000000
177 1 165.714491 251.440280 165.714491 251.440280 0.000000 -0.000000 1.000000 1.000000 1.000000
178 1 298.072497 30.732924 -4.822926 30.732924 0.000000 0.000000 1.000000 1.000000 1.000000
179 1 74.626690 3.283525 74.626690 3.283525 0.000000 -0.000000 1.000000 1.000000 1.000000
180 1 129.121038 77.101650 129.121038 77.101650 -0.000000 0.000000 1.000000 1.000000 1.000000
181 1 102.085777 99.054576 102.085777 99.054576 0.000000 -0.000000 1.000000 1.000000 1.000000
182 1 82.883747 195.933793 82.883747 195.933793 0.000000 -0.000000 1.000000 1.000000 1.000000
183 1 228.519520 13.854230 228.519520 13.854230 -0.000000 0.000000 1.000000 1.000000 1.000000
184 1 244.325134 91.293092 244.325134 91.293092 0.000000 0.000000 1.000000 1.000000 1.000000
185 1 160.596841 103.038547 160.596841 103.038547 0.000000 -0.000000 1.000000 1.000000 1.000000
186 1 15.352469 29.208921 15.352469 29.208921 -0.000000 -0.000000 1.000000 1.000000 1.000000
187 1 266.056860 225.986053 266.056860 225.986053 -0.000000 0.000000 1.000000 1.000000 1.000000
188 1 297.057247 221.251039 297.057247 221.251039 -0.000000 -0.000000 1.000000 1.000000 1.000000
189 1 168.459903 109.093030 168.459903 109.093030 -0.000000 0.000000 1.000000 1.000000 1.000000
190 1 81.671622 108.774153 81.671622 108.774153 0.000000 -0.000000 1.000000 1.000000 1.000000
191 1 61.994711 198.410825 61.994711 198.410825 0.000000 -0.000000 1.000000 1.000000 1.000000
192 1 278.091400 209.847810 278.091400 209.847810 0.000000 0.000000 1.000000 1.000000 1.000000
193 1 201.284210 213.352136 201.284210 213.352136 -0.000000 0.000000 1.000000 1.000000 1.000000
194 1 251.960206 286.722058 251.960206 -16.173365 -0.000000 0.000000 1.000000 1.000000 1.000000
195 1 142.846490 17.350885 142.846490 17.350885 -0.000000 -0.000000 1.000000 1.000000 1.000000
196 1 183.431100 233.144562 183.431100 233.144562 -0.000000 0.000000 1.000000 1.000000 1.000000
197 1 239.941134 128.457905 239.941134 128.457905 -0.000000 -0.000000 1.000000 1.000000 1.000000
198 1 267.055510 34.952246 267.055510 34.952246 0.000000 0.000000 1.000000 1.000000 1.000000
199 1 170.343366 260.035742 170.343366 260.035742 -0.000000 -0.000000 1.000000 1.000000 1.000000
200 1 50.363946 68.997735 50.363946 68.997735 -0.000000 -0.000000 1.000000 1.000000 1.000000
201 1 32.165075 234.366106 32.165075 234.366106 -0.000000 -0.000000 1.000000 1.000000 1.000000
202 1 96.594461 163.041826 96.594461 163.041826 -0.000000 0.000000 1.000000 1.000000 1.000000
203 1 106.255194 121.418416 106.255194 121.418416 -0.000000 -0.000000 1.000000 1.000000 1.000000
204 1 41.773054 98.772512 41.773054 98.772512 -0.000000 -0.000000 1.000000 1.000000 1.000000
205 1 25.585569 244.087947 25.585569 244.087947 -0.000000 0.000000 1.000000 1.000000 1.000000
206 1 44.442249 132.039965 44.442249 132.039965 -0.000000 0.000000 1.000000 1.000000 1.000000
207 1 25.275743 179.276138 25.275743 179.276138 0.000000 0.000000 1.000000 1.000000 1.000000
208 1 1.951487 135.421116 304.846910 135.421116 -0.000000 -0.000000 1.000000 1.000000 1.000000
209 1 211.911578 78.159461 211.911578 78.159461 0.000000 -0.000000 1.000000 1.000000 1.000000
210 1 53.238814 111.073854 53.238814 111.073854 0.000000 -0.000000 1.000000 1.000000 1.000000
211 1 127.683190 74.207975 127.683190 74.207975 -0.000000 0.000000 1.000000 1.000000 1.000000
212 1 209.407729 221.710125 209.407729 221.710125 0.000000 -0.000000 1.000000 1.000000 1.000000
213 1 179.844177 139.144442 179.844177 139.144442 -0.000000 -0.000000 1.000000 1.000000 1.000000
214 1 153.393367 126.267077 153.393367 126.267077 -0.000000 -0.000000 1.000000 1.000000 1.000000
215 1 66.668914 201.322961 66.668914 201.322961 0.000000 0.000000 1.000000 1.000000 1.000000
216 1 15.784197 31.984379 15.784197 31.984379 0.000000 -0.000000 1.000000 1.000000 1.000000
217 1 109.282374 272.069004 109.282374 272.069004 0.000000 0.000000 1.000000 1.000000 1.000000
218 1 21.953467 40.868998 21.953467 40.868998 -0.000000 -0.000000 1.000000 1.000000 1.000000
219 1 145.525436 79.035836 145.525436 79.035836 -0.000000 0.000000 1.000000 1.000000 1.000000
220 1 255.549257 285.170666 255.549257 285.170666 0.000000 -0.000000 1.000000 1.000000 1.000000
221 1 243.503132 254.591331 243.503132 254.591331 0.000000 -0.000000 1.000000 1.000000 1.000000
222 1 125.729758 131.995273 125.729758 131.995273 -0.000000 -0.000000 1.000000 1.000000 1.000000
223 1 201.100872 142.129660 201.100872 142.129660 -0.000000 0.000000 1.000000 1.000000 1.000000
224 1 254.452003 140.414508 254.452003 140.414508 0.000000 0.000000 1.000000 1.000000 1.000000
225 1 96.292188 226.199595 96.292188 226.199595 0.000000 -0.000000 1.000000 1.000000 1.000000
226 1 290.341653 71.796337 -12.553770 71.796337 -0.000000 0.000000 1.000000 1.000000 1.000000
227 1 233.570867 262.038578 233.570867 262.038578 0.000000 -0.000000 1.000000 1.000000 1.000000
228 1 124.278969 241.090091 124.278969 241.090091 0.000000 -0.000000 1.000000 1.000000 1.000000
229 1 237.771978 192.570804 237.771978 192.570804 0.000000 0.000000 1.000000 1.000000 1.000000
230 1 275.373033 51.663326 275.373033 51.663326 -0.000000 -0.000000 1.000000 1.000000 1.000000
231 1 265.318922 246.002199 265.318922 246.002199 -0.000000 -0.000000 1.000000 1.000000 1.000000
232 1 5.471487 218.720512 308.366910 218.720512 -0.000000 -0.000000 1.000000 1.000000 1.000000
233 1 15.294374 280.695637 15.294374 280.695637 -0.000000 -0.000000 1.000000 1.000000 1.000000
234 1 29.083574 97.549575 29.083574 97.549575 -0.000000 -0.000000 1.000000 1.000000 1.000000
235 1 197.160590 195.624322 197.160590 195.624322 -0.000000 -0.000000 1.000000 1.000000 1.000000
236 1 181.163054 294.781924 181.163054 294.781924 -0.000000 0.000000 1.000000 1.000000 1.000000
237 1 147.382991 110.268076 147.382991 110.268076 -0.000000 -0.000000 1.000000 1.000000 1.000000
238 1 168.164956 40.971370 168.164956 40.971370 0.000000 0.000000 1.000000 1.000000 1.000000
239 1 167.527797 190.520501 167.527797 190.520501 -0.000000 0.000000 1.000000 1.000000 1.000000
240 1 126.334482 55.939364 126.334482 55.939364 -0.000000 0.000000 1.000000 1.000000 1.000000
241 1 209.937238 262.025961 209.937238 262.025961 -0.000000 0.000000 1.000000 1.000000 1.000000
242 1 128.940391 46.962839 128.940391 46.962839 0.000000 -0.000000 1.000000 1.000000 1.000000
243 1 242.589882 170.415557 242.589882 170.415557 -0.000000 0.000000 1.000000 1.000000 1.000000
244 1 296.169322 246.655216 -6.726101 246.655216 0.000000 -0.000000 1.000000 1.000000 1.000000
245 1 46.588881 258.723494 46.588881 258.723494 -0.000000 -0.000000 1.000000 1.000000 1.000000
246 1 87.461533 177.574237 87.461533 177.574237 -0.000000 -0.000000 1.000000 1.000000 1.000000
247 1 280.077001 64.153872 280.077001 64.153872 -0.000000 -0.000000 1.000000 1.000000 1.000000
248 1 3.955063 105.158669 306.850486 105.158669 0.000000 -0.000000 1.000000 1.000000 1.000000
249 1 21.287288 33.196348 21.287288 33.196348 0.000000 -0.000000 1.000000 1.000000 1.000000
250 1 122.038149 73.156456 122.038149 73.156456 -0.000000 -0.000000 1.000000 1.000000 1.000000
251 1 86.469400 209.168143 86.469400 209.168143 0.000000 -0.000000 1.000000 1.000000 1.000000
252 1 128.396357 233.763238 128.396357 233.763238 0.000000 0.000000 1.000000 1.000000 1.000000
253 1 4.449790 66.022651 4.449790 66.022651 0.000000 -0.000000 1.000000 1.000000 1.000000
254 1 188.693454 158.735567 188.693454 158.735567 0.000000 0.000000 1.000000 1.000000 1.000000
255 1 30.030882 134.630458 30.030882 134.630458 -0.000000 0.000000 1.000000 1.000000 1.000000
256 1 40.817089 299.493949 40.817089 299.493949 -0.000000 -0.000000 1.000000 1.000000 1.000000
257 1 69.151632 98.279100 69.151632 98.279100 -0.000000 -0.000000 1.000000 1.000000 1.000000
258 1 299.861819 254.184171 -3.033604 254.184171 -0.000000 -0.000000 1.000000 1.000000 1.000000
259 1 214.999834 120.326907 214.999834 120.326907 -0.000000 -0.000000 1.000000 1.000000 1.000000
260 1 74.740508 276.083344 74.740508 276.083344 -0.000000 -0.000000 1.000000 1.000000 1.000000
261 1 61.700662 246.265336 61.700662 246.265336 -0.000000 -0.000000 1.000000 1.000000 1.000000
262 1 70.294047 222.594952 70.294047 222.594952 0.000000 0.000000 1.000000 1.000000 1.000000
263 1 283.280859 42.492805 283.280859 42.492805 -0.000000 0.000000 1.000000 1.000000 1.000000
264 1 224.496941 271.434376 224.496941 271.434376 0.000000 0.000000 1.000000 1.000000 1.000000
265 1 5.111276 97.387248 5.111276 97.387248 -0.000000 -0.000000 1.000000 1.000000 1.000000
266 1 147.958545 217.848651 147.958545 217.848651 -0.000000 0.000000 1.000000 1.000000 1.000000
267 1 65.033873 45.349753 65.033873 45.349753 0.000000 0.000000 1.000000 1.000000 1.000000
268 1 94.880622 119.215096 94.880622 119.215096 -0.000000 0.000000 1.000000 1.000000 1.000000
269 1 43.694588 108.775136 43.694588 108.775136 0.000000 -0.000000 1.000000 1.000000 1.000000
270 1 224.887746 153.524824 224.887746 153.524824 -0.000000 0.000000 1.000000 1.000000 1.000000
271 1 168.167759 138.120133 168.167759 138.120133 0.000000 -0.000000 1.000000 1.000000 1.000000
272 1 88.122734 31.103774 88.122734 31.103774 0.000000 -0.000000 1.000000 1.000000 1.000000
273 1 284.826451 53.598041 284.826451 53.598041 -0.000000 -0.000000 1.000000 1.000000 1.000000
274 1 106.495732 165.426938 106.495732 165.426938 -0.000000 -0.000000 1.000000 1.000000 1.000000
275 1 227.161098 144.781286 227.161098 144.781286 0.000000 -0.000000 1.000000 1.000000 1.000000
276 1 221.191320 235.967493 221.191320 235.967493 0.000000 -0.000000 1.000000 1.000000 1.000000
277 1 236.770921 68.675371 236.770921 68.675371 0.000000 -0.000000 1.000000 1.000000 1.000000
278 1 59.162981 19.094316 59.162981 19.094316 -0.000000 0.000000 1.000000 1.000000 1.000000
279 1 227.580339 153.489611 227.580339 153.489611 -0.000000 0.000000 1.000000 1.000000 1.000000
280 1 29.306553 278.724870 29.306553 278.724870 -0.000000 -0.000000 1.000000 1.000000 1.000000
281 1 212.261136 102.056236 212.261136 102.056236 -0.000000 0.000000 1.000000 1.000000 1.000000
282 1 283.530149 149.410167 283.530149 149.410167 -0.000000 0.000000 1.000000 1.000000 1.000000
283 1 127.423944 184.781576 127.423944 184.781576 0.000000 -0.000000 1.000000 1.000000 1.000000
284 1 123.009176 81.145104 123.009176 81.145104 0.000000 0.000000 1.000000 1.000000 1.000000
285 1 212.787343 35.520160 212.787343 35.520160 0.000000 -0.000000 1.000000 1.000000 1.000000
286 1 185.882294 102.811339 185.882294 102.811339 0.000000 -0.000000 1.000000 1.000000 1.000000
287 1 285.063591 63.170043 285.063591 63.170043 0.000000 0.000000 1.000000 1.000000 1.000000
288 1 201.629487 184.590956 201.629487 184.590956 -0.000000 -0.000000 1.000000 1.000000 1.000000
289 1 37.497627 81.250577 37.497627 81.250577 -0.000000 0.000000 1.000000 1.000000 1.000000
290 1 221.259868 17.420486 221.259868 17.420486 0.000000 -0.000000 1.000000 1.000000 1.000000
291 1 67.210676 220.813283 67.210676 220.813283 0.000000 0.000000 1.000000 1.000000 1.000000
292 1 59.714096 175.427458 59.714096 175.427458 0.000000 -0.000000 1.000000 1.000000 1.000000
293 1 92.345601 223.711341 92.345601 223.711341 -0.000000 0.000000 1.000000 1.000000 1.000000
294 1 56.542127 214.401707 56.542127 214.401707 -0.000000 0.000000 1.000000 1.000000 1.000000
295 1 301.874509 99.612034 301.874509 99.612034 0.000000 0.000000 1.000000 1.000000 1.000000
296 1 115.061344 188.371445 115.061344 188.371445 0.000000 0.000000 1.000000 1.000000 1.000000
297 1 128.381204 196.694954 128.381204 196.694954 -0.000000 -0.000000 1.000000 1.000000 1.000000
298 1 2.911602 185.886690 2.911602 185.886690 -0.000000 -0.000000 1.000000 1.000000 1.000000
299 1 75.521011 119.303913 75.521011 119.303913 -0.000000 -0.000000 1.000000 1.000000 1.000000
300 1 237.495717 278.937061 237.495717 278.937061 -0.000000 0.000000 1.000000 1.000000 1.000000
301 1 0.433289 133.966000 303.328712 133.966000 0.000000 0.000000 1.000000 1.000000 1.000000
302 1 77.675907 292.519761 77.675907 292.519761 -0.000000 -0.000000 1.000000 1.000000 1.000000
303 1 177.481605 110.172014 177.481605 110.172014 -0.000000 0.000000 1.000000 1.000000 1.000000
304 1 178.049526 71.530819 178.049526 71.530819 -0.000000 0.000000 1.000000 1.000000 1.000000
305 1 277.060102 119.073589 277.060102 119.073589 -0.000000 -0.000000 1.000000 1.000000 1.000000
306 1 2.589309 31.618911 2.589309 31.618911 -0.000000 0.000000 1.000000 1.000000 1.000000
307 1 225.699840 15.685851 225.699840 15.685851 0.000000 0.000000 1.000000 1.000000 1.000000
308 1 113.704815 111.935438 113.704815 111.935438 0.000000 -0.000000 1.000000 1.000000 1.000000
309 1 151.163566 18.259026 151.163566 18.259026 0.000000 0.000000 1.000000 1.000000 1.000000
310 1 68.811314 40.263911 68.811314 40.263911 -0.000000 -0.000000 1.000000 1.000000 1.000000
311 1 251.957126 232.990883 251.957126 232.990883 -0.000000 -0.000000 1.000000 1.000000 1.000000
312 1 286.163424 190.706380 286.163424 190.706380 0.000000 -0.000000 1.000000 1.000000 1.000000
313 1 44.713753 160.379161 44.713753 160.379161 0.000000 0.000000 1.000000 1.000000 1.000000
314 1 162.220808 9.662440 162.220808 9.662440 0.000000 0.000000 1.000000 1.000000 1.000000
315 1 231.345361 232.895988 231.345361 232.895988 -0.000000 0.000000 1.000000 1.000000 1.000000