ITEM: TIMESTEP
1900.000000
ITEM: NUMBER OF ATOMS
5000
ITEM: BOX BOUNDS xy xz yz
0 227.108739 0
0 227.108739 0
0 2 0
ITEM: ATOMS id type x y xu yu vx vy radius m z
0 1 107.913439 24.495157 107.913439 24.495157 -0.000000 -0.000000 1.000000 1.000000 1.000000
1 1 130.719828 39.125993 130.719828 39.125993 0.000000 -0.000000 1.000000 1.000000 1.000000
2 1 30.259754 18.109072 30.259754 18.109072 -0.000000 0.000000 1.000000 1.000000 1.000000
3 1 128.372065 215.820437 128.372065 215.820437 -0.000000 0.000000 1.000000 1.000000 1.000000
4 1 120.516109 130.737143 120.516109 130.737143 -0.000000 -0.000000 1.000000 1.000000 1.000000
5 1 225.694008 40.663067 -1.414731 40.663067 0.000000 0.000000 1.000000 1.000000 1.000000
6 1 55.012570 6.365801 55.012570 6.365801 -0.000000 -0.000000 1.000000 1.000000 1.000000
7 1 208.812275 187.426045 -18.296464 187.426045 0.000000 -0.000000 1.000000 1.000000 1.000000
8 1 79.708230 57.411946 79.708230 57.411946 -0.000000 0.000000 1.000000 1.000000 1.000000
9 1 203.562569 38.222991 -23.546170 38.222991 0.000000 0.000000 1.000000 1.000000 1.000000
10 1 35.539710 128.811874 35.539710 128.811874 -0.000000 -0.000000 1.000000 1.000000 1.000000
11 1 164.746489 123.406277 164.746489 123.406277 0.000000 0.000000 1.000000 1.000000 1.000000
12 1 136.226276 111.501170 136.226276 111.501170 0.000000 0.000000 1.000000 1.000000 1.000000
13 1 44.517023 154.710766 44.517023 154.710766 0.000000 0.000000 1.000000 1.000000 1.000000
14 1 156.817091 146.612953 156.817091 146.612953 -0.000000 0.000000 1.000000 1.000000 1.000000
15 1 28.498188 50.092073 28.498188 50.092073 0.000000 0.000000 1.000000 1.000000 1.000000
16 1 124.200950 156.155272 124.200950 156.155272 -0.000000 -0.000000 1.000000 1.000000 1.000000
17 1 202.089250 135.337795 202.089250 135.337795 0.000000 0.000000 1.000000 1.000000 1.000000
18 1 47.580957 136.622648 47.580957 136.622648 0.000000 -0.000000 1.000000 1.000000 1.000000
19 1 194.024845 143.533575 194.024845 143.533575 0.000000 -0.000000 1.000000 1.000000 1.000000
20 1 165.538686 183.444214 165.538686 183.444214 -0.000000 0.000000 1.000000 1.000000 1.000000
21 1 176.738458 131.099003 176.738458 131.099003 -0.000000 0.000000 1.000000 1.000000 1.000000
22 1 198.216422 109.729296 198.216422 109.729296 -0.000000 -0.000000 1.000000 1.000000 1.000000
23 1 176.192684 18.678639 176.192684 245.787378 -0.000000 0.000000 1.000000 1.000000 1.000000
24 1 92.379188 124.711346 92.379188 124.711346 0.000000 0.000000 1.000000 1.000000 1.000000
25 1 79.834888 84.946059 79.834888 84.946059 0.000000 -0.000000 1.000000 1.000000 1.000000
26 1 118.065743 142.956417 118.065743 142.956417 0.000000 0.000000 1.000000 1.000000 1.000000
27 1 31.736999 74.513365 31.736999 74.513365 -0.000000 0.000000 1.000000 1.000000 1.000000
28 1 94.419174 58.992898 94.419174 58.992898 -0.000000 -0.000000 1.000000 1.000000 1.000000
29 1 19.651067 29.524765 19.651067 29.524765 0.000000 0.000000 1.000000 1.000000 1.000000
30 1 44.802708 172.840048 44.802708 172.840048 -0.000000 -0.000000 1.000000 1.000000 1.000000
31 1 125.256230 28.557963 125.256230 28.557963 -0.000000 -0.000000 1.000000 1.000000 1.000000
32 1 52.683707 78.269933 52.683707 78.269933 -0.000000 -0.000000 1.000000 1.000000 1.000000
33 1 226.800429 199.208107 -0.308310 199.208107 -0.000000 -0.000000 1.000000 1.000000 1.000000
34 1 209.130588 168.324494 209.130588 168.324494 -0.000000 0.000000 1.000000 1.000000 1.000000
35 1 134.145154 31.091014 134.145154 31.091014 0.000000 0.000000 1.000000 1.000000 1.000000
36 1 26.918697 70.609986 26.918697 70.609986 -0.000000 0.000000 1.000000 1.000000 1.000000
37 1 141.835561 191.630242 141.835561 191.630242 -0.000000 -0.000000 1.000000 1.000000 1.000000
38 1 187.873884 58.750920 187.873884 58.750920 -0.000000 0.000000 1.000000 1.000000 1.000000
39 1 166.249626 145.055214 166.249626 145.055214 0.000000 0.000000 1.000000 1.000000 1.000000
40 1 78.034701 129.107910 78.034701 129.107910 -0.000000 0.000000 1.000000 1.000000 1.000000
41 1 193.712061 217.382225 193.712061 217.382225 0.000000 -0.000000 1.000000 1.000000 1.000000
42 1 47.582533 48.037664 47.582533 48.037664 0.000000 -0.000000 1.000000 1.000000 1.000000
43 1 145.712814 12.851336 145.712814 12.851336 -0.000000 0.000000 1.000000 1.000000 1.000000
44 1 70.277540 173.632837 70.277540 173.632837 -0.000000 -0.000000 1.000000 1.000000 1.000000
45 1 37.722659 4.433848 37.722659 4.433848 -0.000000 0.000000 1.000000 1.000000 1.000000
46 1 128.963311 40.455434 128.963311 40.455434 0.000000 -0.000000 1.000000 1.000000 1.000000
47 1 2.020949 35.599962 2.020949 35.599962 0.000000 -0.000000 1.000000 1.000000 1.000000
48 1 33.388711 67.578823 33.388711 67.578823 0.000000 0.000000 1.000000 1.000000 1.000000
49 1 215.019599 137.577692 215.019599 137.577692 -0.000000 -0.000000 1.000000 1.000000 1.000000
50 1 201.687621 45.082855 201.687621 45.082855 -0.000000 -0.000000 1.000000 1.000000 1.000000
51 1 174.058789 121.506316 174.058789 121.506316 0.000000 0.000000 1.000000 1.000000 1.000000
52 1 93.182811 14.638229 93.182811 14.638229 -0.000000 0.000000 1.000000 1.000000 1.000000
53 1 30.928765 14.425597 30.928765 14.425597 -0.000000 -0.000000 1.000000 1.000000 1.000000
54 1 193.403029 135.025271 193.403029 135.025271 -0.000000 0.000000 1.000000 1.000000 1.000000
55 1 35.788333 190.004550 35.788333 190.004550 -0.000000 -0.000000 1.000000 1.000000 1.000000
56 1 11.270739 117.555317 11.270739 117.555317 0.000000 0.000000 1.000000 1.000000 1.000000
57 1 128.526097 101.401339 128.526097 101.401339 0.000000 -0.000000 1.000000 1.000000 1.000000
58 1 43.251171 156.790635 43.251171 156.790635 0.000000 0.000000 1.000000 1.000000 1.000000
59 1 144.582723 175.927098 144.582723 175.927098 -0.000000 0.000000 1.000000 1.000000 1.000000
60 1 212.501787 43.495225 212.501787 43.495225 0.000000 0.000000 1.000000 1.000000 1.000000
61 1 9.810128 175.869181 9.810128 175.869181 0.000000 -0.000000 1.000000 1.000000 1.000000
62 1 143.510607 115.409853 143.510607 115.409853 -0.000000 0.000000 1.000000 1.000000 1.000000
63 1 201.675475 72.786382 201.675475 72.786382 -0.000000 -0.000000 1.000000 1.000000 1.000000
64 1 193.701880 161.136215 193.701880 161.136215 0.000000 0.000000 1.000000 1.000000 1.000000
65 1 43.327578 12.312695 43.327578 12.312695 -0.000000 0.000000 1.000000 1.000000 1.000000
66 1 156.762306 29.827590 156.762306 29.827590 -0.000000 0.000000 1.000000 1.000000 1.000000
67 1 171.066058 164.902634 171.066058 164.902634 -0.000000 -0.000000 1.000000 1.000000 1.000000
68 1 131.071812 163.452861 131.071812 163.452861 -0.000000 -0.000000 1.000000 1.000000 1.000000
69 1 40.897894 210.056148 40.897894 210.056148 0.000000 -0.000000 1.000000 1.000000 1.000000
70 1 41.513969 67.194274 41.513969 67.194274 0.000000 -0.000000 1.000000 1.000000 1.000000
71 1 49.125750 148.536773 49.125750 148.536773 0.000000 0.000000 1.000000 1.000000 1.000000
72 1 139.588360 220.940502 139.588360 -6.168237 -0.000000 -0.000000 1.000000 1.000000 1.000000
73 1 110.816775 81.602639 110.816775 81.602639 0.000000 -0.000000 1.000000 1.000000 1.000000
74 1 31.891120 159.410681 31.891120 159.410681 -0.000000 0.000000 1.000000 1.000000 1.000000
75 1 96.962617 162.919726 96.962617 162.919726 0.000000 -0.000000 1.000000 1.000000 1.000000
76 1 153.264646 106.722373 153.264646 106.722373 -0.000000 -0.000000 1.000000 1.000000 1.000000
77 1 89.061764 217.828453 89.061764 -9.280286 -0.000000 0.000000 1.000000 1.000000 1.000000
78 1 35.306460 69.931585 35.306460 69.931585 0.000000 -0.000000 1.000000 1.000000 1.000000
79 1 146.705918 60.217093 146.705918 60.217093 0.000000 -0.000000 1.000000 1.000000 1.000000
80 1 223.115354 213.437753 223.115354 213.437753 0.000000 -0.000000 1.000000 1.000000 1.000000
81 1 212.865018 157.441068 212.865018 157.441068 -0.000000 -0.000000 1.000000 1.000000 1.000000
82 1 80.966675 193.841947 80.966675 193.841947 0.000000 0.000000 1.000000 1.000000 1.000000
83 1 181.967385 212.715550 181.967385 212.715550 -0.000000 0.000000 1.000000 1.000000 1.000000
84 1 6.708835 213.228274 6.708835 213.228274 0.000000 -0.000000 1.000000 1.000000 1.000000
85 1 133.013770 23.827191 133.013770 23.827191 -0.000000 0.000000 1.000000 1.000000 1.000000
86 1 138.407658 74.090116 138.407658 74.090116 0.000000 0.000000 1.000000 1.000000 1.000000
87 1 116.857796 38.024061 116.857796 38.024061 -0.000000 0.000000 1.000000 1.000000 1.000000
88 1 52.045334 38.129748 52.045334 38.129748 0.000000 0.000000 1.000000 1.000000 1.000000
89 1 110.034248 155.696481 110.034248 155.696481 0.000000 0.000000 1.000000 1.000000 1.000000
90 1 226.370735 19.921601 226.370735 19.921601 -0.000000 0.000000 1.000000 1.000000 1.000000
91 1 86.385746 138.495396 86.385746 138.495396 -0.000000 -0.000000 1.000000 1.000000 1.000000
92 1 185.193197 118.497791 185.193197 118.497791 0.000000 -0.000000 1.000000 1.000000 1.000000
93 1 97.940359 212.005598 97.940359 212.005598 -0.000000 -0.000000 1.000000 1.000000 1.000000
94 1 146.084036 7.677102 146.084036 7.677102 0.000000 0.000000 1.000000 1.000000 1.000000
95 1 139.023058 34.239517 139.023058 34.239517 0.000000 -0.000000 1.000000 1.000000 1.000000
96 1 71.032722 22.950364 71.032722 22.950364 -0.000000 0.000000 1.000000 1.000000 1.000000
97 1 80.600448 33.385525 80.600448 33.385525 0.000000 -0.000000 1.000000 1.000000 1.000000
98 1 145.305542 194.365249 145.305542 194.365249 0.000000 -0.000000 1.000000 1.000000 1.000000
99 1 178.504281 47.020289 178.504281 47.020289 -0.000000 0.000000 1.000000 1.000000 1.000000
100 1 225.224204 200.735844 225.224204 200.735844 0.000000 -0.000000 1.000000 1.000000 1.000000
101 1 212.284590 28.553257 212.284590 28.553257 -0.000000 0.000000 1.000000 1.000000 1.000000
102 1 13.892398 149.481275 13.892398 149.481275 -0.000000 0.000000 1.000000 1.000000 1.000000
103 1 37.970996 40.925004 37.970996 40.925004 -0.000000 0.000000 1.000000 1.000000 1.000000
104 1 220.229532 30.445419 220.229532 30.445419 0.000000 -0.000000 1.000000 1.000000 1.000000
105 1 26.587908 136.431725 26.587908 136.431725 0.000000 -0.000000 1.000000 1.000000 1.000000
106 1 203.953264 225.744490 203.953264 -1.364249 -0.000000 0.000000 1.000000 1.000000 1.000000
107 1 137.518059 115.285172 137.518059 115.285172 0.000000 -0.000000 1.000000 1.000000 1.000000
108 1 176.264208 35.316244 176.264208 35.316244 -0.000000 -0.000000 1.000000 1.000000 1.000000
109 1 143.526294 139.747791 143.526294 139.747791 -0.000000 0.000000 1.000000 1.000000 1.000000
110 1 130.297016 187.916447 130.297016 187.916447 -0.000000 -0.000000 1.000000 1.000000 1.000000
111 1 122.991580 13.726100 122.991580 13.726100 0.000000 -0.000000 1.000000 1.000000 1.000000
112 1 174.792831 125.381831 174.792831 125.381831 0.000000 0.000000 1.000000 1.000000 1.000000
113 1 30.745934 194.452943 30.745934 194.452943 0.000000 0.000000 1.000000 1.000000 1.000000
114 1 146.859813 119.333105 146.859813 119.333105 0.000000 0.000000 1.000000 1.000000 1.000000
115 1 160.655426 73.476172 160.655426 73.476172 0.000000 0.000000 1.000000 1.000000 1.000000
116 1 214.170039 153.525669 214.170039 153.525669 -0.000000 -0.000000 1.000000 1.000000 1.000000
117 1 96.988831 60.251467 96.988831 60.251467 0.000000 -0.000000 1.000000 1.000000 1.000000
118 1 181.090288 117.776301 181.090288 117.776301 -0.000000 0.000000 1.000000 1.000000 1.000000
119 1 202.100740 51.374322 202.100740 51.374322 -0.000000 -0.000000 1.000000 1.000000 1.000000
120 1 135.618135 139.642828 135.618135 139.642828 -0.000000 0.000000 1.000000 1.000000 1.000000
121 1 36.508044 144.484702 36.508044 144.484702 -0.000000 -0.000000 1.000000 1.000000 1.000000
122 1 137.181731 176.855798 137.181731 176.855798 -0.000000 0.000000 1.000000 1.000000 1.000000
123 1 96.369595 131.131740 96.369595 131.131740 -0.000000 -0.000000 1.000000 1.000000 1.000000
124 1 187.432306 225.722140 187.432306 -1.386599 0.000000 0.000000 1.000000 1.000000 1.000000
125 1 201.061569 87.517358 201.061569 87.517358 0.000000 0.000000 1.000000 1.000000 1.000000
126 1 95.279353 220.920287 95.279353 220.920287 0.000000 -0.000000 1.000000 1.000000 1.000000
127 1 123.597443 73.888115 123.597443 73.888115 0.000000 -0.000000 1.000000 1.000000 1.000000
128 1 113.991846 63.997052 113.991846 63.997052 0.000000 -0.000000 1.000000 1.000000 1.000000
129 1 82.879623 88.727041 82.879623 88.727041 0.000000 0.000000 1.000000 1.000000 1.000000
130 1 160.449180 10.138174 160.449180 10.138174 -0.000000 -0.000000 1.000000 1.000000 1.000000
131 1 65.205401 47.039578 65.205401 47.039578 -0.000000 0.000000 1.000000 1.000000 1.000000
132 1 15.702902 223.201581 15.702902 -3.907158 -0.000000 -0.000000 1.000000 1.000000 1.000000
133 1 135.585336 146.450012 135.585336 146.450012 0.000000 -0.000000 1.000000 1.000000 1.000000
134 1 109.457405 163.839952 109.457405 163.839952 0.000000 0.000000 1.000000 1.000000 1.000000
135 1 154.764412 196.326805 154.764412 196.326805 0.000000 -0.000000 1.000000 1.000000 1.000000
136 1 88.411533 223.310435 88.411533 223.310435 0.000000 0.000000 1.000000 1.000000 1.000000
137 1 32.483509 12.627404 32.483509 12.627404 0.000000 -0.000000 1.000000 1.000000 1.000000
138 1 198.569995 192.730414 198.569995 192.730414 -0.000000 0.000000 1.000000 1.000000 1.000000
139 1 197.471584 66.633299 197.471584 66.633299 -0.000000 -0.000000 1.000000 1.000000 1.000000
140 1 127.158687 161.019651 127.158687 161.019651 0.000000 -0.000000 1.000000 1.000000 1.000000
141 1 89.119751 73.352867 89.119751 73.352867 -0.000000 -0.000000 1.000000 1.000000 1.000000
142 1 198.795824 159.065062 198.795824 159.065062 -0.000000 -0.000000 1.000000 1.000000 1.000000
143 1 118.928012 159.420661 118.928012 159.420661 0.000000 0.000000 1.000000 1.000000 1.000000
144 1 178.450093 98.750746 178.450093 98.750746 -0.000000 0.000000 1.000000 1.000000 1.000000
145 1 27.294806 196.632226 27.294806 196.632226 -0.000000 -0.000000 1.000000 1.000000 1.000000
146 1 115.314640 69.545242 115.314640 69.545242 0.000000 -0.000000 1.000000 1.000000 1.000000
147 1 118.846760 223.911929 118.846760 223.911929 0.000000 0.000000 1.000000 1.000000 1.000000
148 1 173.976944 5.695675 173.976944 5.695675 0.000000 -0.000000 1.000000 1.000000 1.000000
149 1 51.451307 135.498143 51.451307 135.498143 0.000000 0.000000 1.000000 1.000000 1.000000
150 1 119.126059 100.430565 119.126059 100.430565 -0.000000 -0.000000 1.000000 1.000000 1.000000
151 1 127.389974 217.753085 127.389974 217.753085 0.000000 -0.000000 1.000000 1.000000 1.000000
152 1 13.870871 181.430110 13.870871 181.430110 -0.000000 0.000000 1.000000 1.000000 1.000000
153 1 196.324156 157.998112 196.324156 157.998112 -0.000000 -0.000000 1.000000 1.000000 1.000000
154 1 75.029841 147.054013 75.029841 147.054013 0.000000 0.000000 1.000000 1.000000 1.000000
155 1 175.764547 59.626181 175.764547 59.626181 -0.000000 -0.000000 1.000000 1.000000 1.000000
156 1 142.878922 46.850571 142.878922 46.850571 -0.000000 -0.000000 1.000000 1.000000 1.000000
157 1 37.511573 153.404202 37.511573 153.404202 0.000000 0.000000 1.000000 1.000000 1.000000
158 1 185.465773 84.399086 185.465773 84.399086 -0.000000 0.000000 1.000000 1.000000 1.000000
159 1 48.796692 5.633076 48.796692 5.633076 0.000000 0.000000 1.000000 1.000000 1.000000
160 1 172.987893 205.915887 172.987893 205.915887 -0.000000 -0.000000 1.000000 1.000000 1.000000
161 1 211.296619 38.410599 211.296619 38.410599 0.000000 -0.000000 1.000000 1.000000 1.000000
162 1 192.220988 118.021185 192.220988 118.021185 -0.000000 0.000000 1.000000 1.000000 1.000000
163 1 39.010651 71.062477 39.010651 71.062477 0.000000 -0.000000 1.000000 1.000000 1.000000
164 1 159.630952 136.472485 159.630952 136.472485 0.000000 -0.000000 1.000000 1.000000 1.000000
165 1 59.341393 38.757133 59.341393 38.757133 -0.000000 0.000000 1.000000 1.000000 1.000000
166 1 55.768910 191.913557 55.768910 191.913557 -0.000000 0.000000 1.000000 1.000000 1.000000
167 1 104.624311 209.404964 104.624311 209.404964 0.000000 0.000000 1.000000 1.000000 1.000000
168 1 107.120177 68.462846 107.120177 68.462846 -0.000000 -0.000000 1.000000 1.000000 1.000000
169 1 116.707731 127.678190 116.707731 127.678190 -0.000000 -0.000000 1.000000 1.000000 1.000000
170 1 195.998403 218.389339 195.998403 218.389339 -0.000000 -0.000000 1.000000 1.000000 1.000000
171 1 52.025583 57.237497 52.025583 57.237497 0.000000 0.000000 1.000000 1.000000 1.000000
172 1 165.511811 3.533144 165.511811 230.641883 -0.000000 -0.000000 1.000000 1.000000 1.000000
173 1 131.402139 129.644260 131.402139 129.644260 -0.000000 -0.000000 1.000000 1.000000 1.000000
174 1 22.971867 115.296164 22.971867 115.296164 0.000000 0.000000 1.000000 1.000000 1.000000
175 1 97.424752 70.393571 97.424752 70.393571 -0.000000 0.000000 1.000000 1.000000 1.000000
176 1 2.053991 75.212806 2.053991 75.212806 -0.000000 0.000000 1.000000 1.000000 1.000000
177 1 212.159688 188.484083 212.159688 188.484083 -0.000000 0.000000 1.000000 1.000000 1.000000
178 1 60.726033 169.389205 60.726033 169.389205 0.000000 -0.000000 1.000000 1.000000 1.000000
179 1 121.977660 66.753165 121.977660 66.753165 -0.000000 -0.000000 1.000000 1.000000 1.000000
180 1 74.365437 0.186313 74.365437 227.295052 -0.000000 0.000000 1.000000 1.000000 1.000000
181 1 30.976660 212.230010 30.976660 212.230010 0.000000 0.000000 1.000000 1.000000 1.000000
182 1 130.966786 44.674895 130.966786 44.674895 0.000000 -0.000000 1.000000 1.000000 1.000000
183 1 150.395091 82.153133 150.395091 82.153133 0.000000 0.000000 1.000000 1.000000 1.000000
184 1 5.428124 155.721371 232.536863 155.721371 0.000000 0.000000 1.000000 1.000000 1.000000
185 1 91.326468 76.439286 91.326468 76.439286 -0.000000 0.000000 1.000000 1.000000 1.000000
186 1 138.809366 145.904665 138.809366 145.904665 0.000000 -0.000000 1.000000 1.000000 1.000000
187 1 125.698575 60.413047 125.698575 60.413047 0.000000 -0.000000 1.000000 1.000000 1.000000
188 1 45.029202 85.235199 45.029202 85.235199 -0.000000 0.000000 1.000000 1.000000 1.000000
189 1 90.567756 155.824016 90.567756 155.824016 0.000000 0.000000 1.000000 1.000000 1.000000
190 1 50.706972 33.335047 50.706972 33.335047 0.000000 0.000000 1.000000 1.000000 1.000000
191 1 89.879672 133.831926 89.879672 133.831926 -0.000000 -0.000000 1.000000 1.000000 1.000000
192 1 117.085494 83.940705 117.085494 83.940705 0.000000 -0.000000 1.000000 1.000000 1.000000
193 1 114.102215 106.623202 114.102215 106.623202 -0.000000 -0.000000 1.000000 1.000000 1.000000
194 1 8.881281 59.724964 8.881281 59.724964 -0.000000 -0.000000 1.000000 1.000000 1.000000
195 1 68.123812 111.707070 68.123812 111.707070 0.000000 0.000000 1.000000 1.000000 1.000000
196 1 107.802456 130.092359 107.802456 130.092359 0.000000 -0.000000 1.000000 1.000000 1.000000
197 1 164.983194 165.828987 164.983194 165.828987 0.000000 0.000000 1.000000 1.000000 1.000000
198 1 169.217590 200.271371 169.217590 200.271371 -0.000000 -0.000000 1.000000 1.000000 1.000000
199 1 204.341383 202.163166 204.341383 202.163166 0.000000 0.000000 1.000000 1.000000 1.000000
200 1 226.788785 67.457666 226.788785 67.457666 -0.000000 0.000000 1.000000 1.000000 1.000000
201 1 1.541060 60.107354 228.649799 60.107354 -0.000000 0.000000 1.000000 1.000000 1.000000
202 1 153.929682 61.714990 153.929682 61.714990 -0.000000 -0.000000 1.000000 1.000000 1.000000
203 1 87.399766 96.321944 87.399766 96.321944 0.000000 0.000000 1.000000 1.000000 1.000000
204 1 142.658157 74.140691 142.658157 74.140691 0.000000 0.000000 1.000000 1.000000 1.000000
205 1 129.417407 120.524078 129.417407 120.524078 -0.000000 -0.000000 1.000000 1.000000 1.000000
206 1 150.511902 187.268630 150.511902 187.268630 -0.000000 0.000000 1.000000 1.000000 1.000000
207 1 103.176851 109.546641 103.176851 109.546641 -0.000000 0.000000 1.000000 1.000000 1.000000
208 1 138.196565 107.204239 138.196565 107.204239 -0.000000 -0.000000 1.000000 1.000000 1.000000
209 1 123.835156 50.849807 123.835156 50.849807 -0.000000 0.000000 1.000000 1.000000 1.000000
210 1 91.402981 140.661223 91.402981 140.661223 -0.000000 -0.000000 1.000000 1.000000 1.000000
211 1 50.688850 10.182716 50.688850 237.291455 -0.000000 0.000000 1.000000 1.000000 1.000000
212 1 149.845143 46.249483 149.845143 46.249483 0.000000 0.000000 1.000000 1.000000 1.000000
213 1 24.862081 38.051204 24.862081 38.051204 -0.000000 0.000000 1.000000 1.000000 1.000000
214 1 114.903801 168.023480 114.903801 168.023480 -0.000000 0.000000 1.000000 1.000000 1.000000
215 1 136.999931 4.689529 136.999931 4.689529 0.000000 -0.000000 1.000000 1.000000 1.000000
216 1 89.808953 143.547773 89.808953 143.547773 0.000000 0.000000 1.000000 1.000000 1.000000
217 1 210.865267 118.288589 210.865267 118.288589 0.000000 0.000000 1.000000 1.000000 1.000000
218 1 149.018728 107.785623 149.018728 107.785623 0.000000 -0.000000 1.000000 1.000000 1.000000
219 1 204.393574 216.833004 204.393574 216.833004 0.000000 -0.000000 1.000000 1.000000 1.000000
220 1 151.146292 48.341898 151.146292 48.341898 0.000000 -0.000000 1.000000 1.000000 1.000000
221 1 182.137111 56.267157 182.137111 56.267157 -0.000000 0.000000 1.000000 1.000000 1.000000
222 1 34.269826 206.893845 34.269826 206.893845 -0.000000 -0.000000 1.000000 1.000000 1.000000
223 1 206.055783 60.467721 206.055783 60.467721 0.000000 0.000000 1.000000 1.000000 1.000000
224 1 0.536467 189.810124 0.536467 189.810124 0.000000 -0.000000 1.000000 1.000000 1.000000
225 1 40.909488 148.240945 40.909488 148.240945 0.000000 -0.000000 1.000000 1.000000 1.000000
226 1 149.091710 161.633750 149.091710 161.633750 0.000000 -0.000000 1.000000 1.000000 1.000000
227 1 97.658072 67.276968 97.658072 67.276968 0.000000 -0.000000 1.000000 1.000000 1.000000
228 1 221.556468 223.228591 -5.552271 223.228591 -0.000000 0.000000 1.000000 1.000000 1.000000
229 1 156.135275 3.367268 156.135275 3.367268 0.000000 -0.000000 1.000000 1.000000 1.000000
230 1 116.190041 93.759008 116.190041 93.759008 -0.000000 0.000000 1.000000 1.000000 1.000000
231 1 47.514628 1.267757 47.514628 1.267757 -0.000000 -0.000000 1.000000 1.000000 1.000000
232 1 161.605768 70.479336 161.605768 70.479336 -0.000000 0.000000 1.000000 1.000000 1.000000
233 1 29.326846 59.874518 29.326846 59.874518 0.000000 0.000000 1.000000 1.000000 1.000000
234 1 2.336594 98.753357 229.445333 98.753357 -0.000000 -0.000000 1.000000 1.000000 1.000000
235 1 175.769087 165.792430 175.769087 165.792430 -0.000000 0.000000 1.000000 1.000000 1.000000
236 1 184.534298 7.115798 184.534298 7.115798 0.000000 -0.000000 1.000000 1.000000 1.000000
237 1 151.488634 189.841494 151.488634 189.841494 0.000000 0.000000 1.000000 1.000000 1.000000
238 1 7.593414 134.525462 7.593414 134.525462 0.000000 0.000000 1.000000 1.000000 1.000000
239 1 176.586515 83.562868 176.586515 83.562868 -0.000000 -0.000000 1.000000 1.000000 1.000000
240 1 12.944307 45.939946 240.053046 45.939946 -0.000000 -0.000000 1.000000 1.000000 1.000000
241 1 12.310221 178.338753 12.310221 178.338753 -0.000000 0.000000 1.000000 1.000000 1.000000
242 1 166.631752 124.951709 166.631752 124.951709 -0.000000 0.000000 1.000000 1.000000 1.000000
243 1 132.535328 180.738578 132.535328 180.738578 -0.000000 -0.000000 1.000000 1.000000 1.000000
244 1 19.208551 121.138145 19.208551 121.138145 -0.000000 -0.000000 1.000000 1.000000 1.000000
245 1 117.059627 49.015358 117.059627 49.015358 -0.000000 0.000000 1.000000 1.000000 1.000000
246 1 223.260544 197.581441 223.260544 197.581441 0.000000 -0.000000 1.000000 1.000000 1.000000
247 1 192.087681 183.397784 192.087681 183.397784 -0.000000 -0.000000 1.000000 1.000000 1.000000
248 1 28.429421 177.219183 28.429421 177.219183 -0.000000 -0.000000 1.000000 1.000000 1.000000
249 1 137.812703 200.711068 137.812703 200.711068 -0.000000 0.000000 1.000000 1.000000 1.000000
250 1 91.946393 153.461213 91.946393 153.461213 -0.000000 -0.000000 1.000000 1.000000 1.000000
251 1 45.282161 135.647195 45.282161 135.647195 -0.000000 -0.000000 1.000000 1.000000 1.000000
252 1 179.585329 41.446393 179.585329 41.446393 -0.000000 -0.000000 1.000000 1.000000 1.000000
253 1 92.162814 1.873152 92.162814 1.873152 0.000000 -0.000000 1.000000 1.000000 1.000000
254 1 38.665833 211.922553 38.665833 211.922553 0.000000 -0.000000 1.000000 1.000000 1.000000
255 1 130.148329 190.105194 130.148329 190.105194 -0.000000 0.000000 1.000000 1.000000 1.000000
256 1 13.861561 140.373560 13.861561 140.373560 0.000000 0.000000 1.000000 1.000000 1.000000
257 1 86.098829 26.554783 86.098829 26.554783 -0.000000 0.000000 1.000000 1.000000 1.000000
258 1 98.490345 160.693788 98.490345 160.693788 0.000000 -0.000000 1.000000 1.000000 1.000000
259 1 37.299955 120.107623 37.299955 120.107623 0.000000 0.000000 1.000000 1.000000 1.000000
260 1 107.309218 32.317902 107.309218 32.317902 0.000000 0.000000 1.000000 1.000000 1.000000
261 1 50.464535 45.278810 50.464535 45.278810 -0.000000 0.000000 1.000000 1.000000 1.000000
262 1 2.243073 84.922047 2.243073 84.922047 -0.000000 -0.000000 1.000000 1.000000 1.000000
263 1 131.057632 22.515790 131.057632 22.515790 0.000000 0.000000 1.000000 1.000000 1.000000
264 1 197.516825 140.657805 197.516825 140.657805 0.000000 0.000000 1.000000 1.000000 1.000000
265 1 85.067462 107.757821 85.067462 107.757821 -0.000000 0.000000 1.000000 1.000000 1.000000
266 1 31.584228 26.751304 31.584228 26.751304 -0.000000 0.000000 1.000000 1.000000 1.000000
267 1 95.950797 187.221771 95.950797 187.221771 0.000000 -0.000000 1.000000 1.000000 1.000000
268 1 150.582491 84.255351 150.582491 84.255351 0.000000 0.000000 1.000000 1.000000 1.000000
269 1 216.804587 117.882501 216.804587 117.882501 0.000000 0.000000 1.000000 1.000000 1.000000
270 1 213.836438 206.994543 -13.272301 206.994543 -0.000000 -0.000000 1.000000 1.000000 1.000000
271 1 181.056594 49.822353 181.056594 49.822353 0.000000 0.000000 1.000000 1.000000 1.000000
272 1 85.090130 175.446895 85.090130 175.446895 0.000000 -0.000000 1.000000 1.000000 1.000000
273 1 102.570578 117.189020 102.570578 117.189020 -0.000000 0.000000 1.000000 1.000000 1.000000
274 1 179.199737 48.996000 179.199737 48.996000 -0.000000 0.000000 1.000000 1.000000 1.000000
275 1 41.664354 5.945879 41.664354 5.945879 -0.000000 0.000000 1.000000 1.000000 1.000000
276 1 113.127971 92.417927 113.127971 92.417927 -0.000000 -0.000000 1.000000 1.000000 1.000000
277 1 142.500263 91.708603 142.500263 91.708603 0.000000 0.000000 1.000000 1.000000 1.000000
278 1 33.569135 158.008250 33.569135 158.008250 0.000000 0.000000 1.000000 1.000000 1.000000
279 1 0.447017 167.518965 0.447017 167.518965 0.000000 0.000000 1.000000 1.000000 1.000000
280 1 13.286143 173.169644 13.286143 173.169644 0.000000 0.000000 1.000000 1.000000 1.000000
281 1 13.965747 117.364343 13.965747 117.364343 0.000000 0.000000 1.000000 1.000000 1.000000
282 1 56.061805 50.955418 56.061805 50.955418 -0.000000 -0.000000 1.000000 1.000000 1.000000
283 1 101.512246 181.354116 101.512246 181.354116 -0.000000 -0.000000 1.000000 1.000000 1.000000
284 1 129.925935 1.445718 129.925935 228.554457 -0.000000 0.000000 1.000000 1.000000 1.000000
285 1 188.827848 88.995353 188.827848 88.995353 0.000000 -0.000000 1.000000 1.000000 1.000000
286 1 94.913123 52.495072 94.913123 52.495072 0.000000 0.000000 1.000000 1.000000 1.000000
287 1 152.073991 171.240472 152.073991 171.240472 0.000000 0.000000 1.000000 1.000000 1.000000
288 1 6.204661 75.538303 6.204661 75.538303 0.000000 0.000000 1.000000 1.000000 1.000000
289 1 91.561363 83.176311 91.561363 83.176311 0.000000 -0.000000 1.000000 1.000000 1.000000
290 1 114.865092 179.941312 114.865092 179.941312 0.000000 -0.000000 1.000000 1.000000 1.000000
291 1 66.208639 33.078140 66.208639 33.078140 0.000000 0.000000 1.000000 1.000000 1.000000
292 1 209.099822 17.249680 209.099822 17.249680 -0.000000 0.000000 1.000000 1.000000 1.000000
293 1 128.603606 104.237789 128.603606 104.237789 -0.000000 -0.000000 1.000000 1.000000 1.000000
294 1 99.168337 18.836946 99.168337 18.836946 -0.000000 0.000000 1.000000 1.000000 1.000000
295 1 84.395494 98.873472 84.395494 98.873472 0.000000 0.000000 1.000000 1.000000 1.000000
296 1 148.569053 5.348062 148.569053 5.348062 -0.000000 0.000000 1.000000 1.000000 1.000000
297 1 137.319141 38.411248 137.319141 38.411248 0.000000 -0.000000 1.000000 1.000000 1.000000
298 1 165.942814 177.524225 165.942814 177.524225 -0.000000 0.000000 1.000000 1.000000 1.000000
299 1 143.925914 141.813666 143.925914 141.813666 -0.000000 -0.000000 1.000000 1.000000 1.000000
300 1 104.159053 90.399111 104.159053 90.399111 0.000000 -0.000000 1.000000 1.000000 1.000000
301 1 80.416120 208.486119 80.416120 208.486119 0.000000 -0.000000 1.000000 1.000000 1.000000
302 1 20.170928 213.472814 20.170928 213.472814 0.000000 0.000000 1.000000 1.000000 1.000000
303 1 103.162834 121.627927 103.162834 121.627927 -0.000000 0.000000 1.000000 1.000000 1.000000
304 1 41.778114 176.102674 41.778114 176.102674 -0.000000 -0.000000 1.000000 1.000000 1.000000
305 1 66.105128 211.313580 66.105128 211.313580 -0.000000 -0.000000 1.000000 1.000000 1.000000
306 1 205.984635 220.585849 205.984635 220.585849 0.000000 0.000000 1.000000 1.000000 1.000000
307 1 53.426746 153.189790 53.426746 153.189790 -0.000000 0.000000 1.000000 1.000000 1.000000
308 1 3.830457 130.825002 3.830457 130.825002 0.000000 0.000000 1.000000 1.000000 1.000000
309 1 98.754503 187.846516 98.754503 187.846516 0.000000 -0.000000 1.000000 1.000000 1.000000
310 1 18.347833 101.748771 18.347833 101.748771 0.000000 -0.000000 1.000000 1.000000 1.000000
311 1 110.362210 20.778066 110.362210 20.778066 0.000000 0.000000 1.000000 1.000000 1.000000
312 1 42.293161 107.958990 42.293161 107.958990 -0.000000 0.000000 1.000000 1.000000 1.000000
313 1 63.728515 7.243648 63.728515 7.243648 -0.000000 0.000000 1.000000 1.000000 1.000000
314 1 176.527262 49.681169 176.527262 49.681169 0.000000 0.000000 1.000000 1.000000 1.000000
315 1 118.746590 129.300590 118.746590 129.300590 -0.000000 -0.000000 1.000000 1.000000 1.000000
316 1 170.224532 132.845421 170.224532 132.845421 0.000000 0.000000 1.000000 1.000000 1.000000
317 1 32.907221 211.121321 32.907221 211.121321 -0.000000 -0.000000 1.000000 1.000000 1.000000