ITEM: TIMESTEP
1100.000000
ITEM: NUMBER OF ATOMS
5000
ITEM: BOX BOUNDS xy xz yz
0 302.895423 0
0 302.895423 0
0 2 0
ITEM: ATOMS id type x y xu yu vx vy radius m z
0 1 281.609789 51.893433 281.609789 51.893433 -0.000000 -0.000000 1.000000 1.000000 1.000000
1 1 217.746220 87.663020 217.746220 87.663020 -0.000000 -0.000000 1.000000 1.000000 1.000000
2 1 68.485515 85.958457 68.485515 85.958457 0.000000 -0.000000 1.000000 1.000000 1.000000
3 1 291.070504 229.538105 291.070504 229.538105 -0.000000 0.000000 1.000000 1.000000 1.000000
4 1 16.813732 62.431141 16.813732 62.431141 0.000000 -0.000000 1.000000 1.000000 1.000000
5 1 166.498264 91.705843 166.498264 91.705843 -0.000000 0.000000 1.000000 1.000000 1.000000
6 1 178.659786 237.385255 178.659786 237.385255 0.000000 0.000000 1.000000 1.000000 1.000000
7 1 165.597365 208.050705 165.597365 208.050705 0.000000 0.000000 1.000000 1.000000 1.000000
8 1 218.294623 68.912230 218.294623 68.912230 0.000000 -0.000000 1.000000 1.000000 1.000000
9 1 17.075648 251.938631 17.075648 251.938631 -0.000000 -0.000000 1.000000 1.000000 1.000000
10 1 278.526407 229.785730 278.526407 229.785730 -0.000000 -0.000000 1.000000 1.000000 1.000000
11 1 293.566627 252.835684 293.566627 252.835684 0.000000 -0.000000 1.000000 1.000000 1.000000
12 1 10.352682 203.696132 10.352682 203.696132 -0.000000 -0.000000 1.000000 1.000000 1.000000
13 1 56.523344 138.592289 56.523344 138.592289 -0.000000 -0.000000 1.000000 1.000000 1.000000
14 1 210.894814 43.171037 210.894814 43.171037 -0.000000 0.000000 1.000000 1.000000 1.000000
15 1 192.774846 157.706661 192.774846 157.706661 -0.000000 0.000000 1.000000 1.000000 1.000000
16 1 154.862727 257.928379 154.862727 257.928379 -0.000000 -0.000000 1.000000 1.000000 1.000000
17 1 155.110106 7.582284 155.110106 7.582284 -0.000000 -0.000000 1.000000 1.000000 1.000000
18 1 41.472532 24.805449 41.472532 24.805449 -0.000000 0.000000 1.000000 1.000000 1.000000
19 1 209.361853 20.123897 209.361853 20.123897 0.000000 -0.000000 1.000000 1.000000 1.000000
20 1 91.999438 159.451301 91.999438 159.451301 -0.000000 -0.000000 1.000000 1.000000 1.000000
21 1 217.729051 0.631174 217.729051 303.526597 -0.000000 0.000000 1.000000 1.000000 1.000000
22 1 281.523092 59.519734 281.523092 59.519734 -0.000000 0.000000 1.000000 1.000000 1.000000
23 1 292.825528 124.883722 292.825528 124.883722 -0.000000 0.000000 1.000000 1.000000 1.000000
24 1 191.567168 141.958456 191.567168 141.958456 -0.000000 -0.000000 1.000000 1.000000 1.000000
25 1 191.135438 63.530955 191.135438 63.530955 0.000000 -0.000000 1.000000 1.000000 1.000000
26 1 177.373785 243.188400 177.373785 243.188400 0.000000 -0.000000 1.000000 1.000000 1.000000
27 1 214.261093 213.014318 214.261093 213.014318 -0.000000 -0.000000 1.000000 1.000000 1.000000
28 1 162.798447 114.717366 162.798447 114.717366 0.000000 0.000000 1.000000 1.000000 1.000000
29 1 283.662578 99.978238 283.662578 99.978238 0.000000 0.000000 1.000000 1.000000 1.000000
30 1 211.200407 292.940821 211.200407 292.940821 0.000000 0.000000 1.000000 1.000000 1.000000
31 1 77.423724 111.482722 77.423724 111.482722 -0.000001 0.000001 1.000000 1.000000 1.000000
32 1 145.838512 146.174108 145.838512 146.174108 0.000000 0.000000 1.000000 1.000000 1.000000
33 1 39.114089 259.068551 39.114089 259.068551 0.000000 0.000000 1.000000 1.000000 1.000000
34 1 259.785222 293.368335 259.785222 -9.527088 -0.000000 -0.000000 1.000000 1.000000 1.000000
35 1 281.807391 186.177604 281.807391 186.177604 -0.000000 -0.000000 1.000000 1.000000 1.000000
36 1 33.540311 235.913021 33.540311 235.913021 -0.000000 0.000000 1.000000 1.000000 1.000000
37 1 36.682514 165.440952 36.682514 165.440952 -0.000000 -0.000000 1.000000 1.000000 1.000000
38 1 115.435282 47.128041 115.435282 47.128041 0.000000 0.000000 1.000000 1.000000 1.000000
39 1 183.817349 269.802223 183.817349 269.802223 -0.000000 0.000000 1.000000 1.000000 1.000000
40 1 272.101928 228.272055 272.101928 228.272055 0.000000 -0.000000 1.000000 1.000000 1.000000
41 1 184.586566 228.010509 184.586566 228.010509 -0.000000 -0.000000 1.000000 1.000000 1.000000
42 1 291.718086 259.018334 291.718086 259.018334 -0.000000 0.000000 1.000000 1.000000 1.000000
43 1 273.779082 231.551539 273.779082 231.551539 -0.000000 -0.000000 1.000000 1.000000 1.000000
44 1 201.930456 93.442602 201.930456 93.442602 0.000000 0.000000 1.000000 1.000000 1.000000
45 1 287.733788 285.586267 287.733788 285.586267 -0.000000 0.000000 1.000000 1.000000 1.000000
46 1 217.226106 30.856165 217.226106 30.856165 0.000001 -0.000000 1.000000 1.000000 1.000000
47 1 197.625809 135.512679 197.625809 135.512679 0.000000 -0.000000 1.000000 1.000000 1.000000
48 1 159.023420 156.385295 159.023420 156.385295 0.000000 -0.000000 1.000000 1.000000 1.000000
49 1 254.683776 181.637848 254.683776 181.637848 0.000000 0.000000 1.000000 1.000000 1.000000
50 1 291.324536 273.681885 291.324536 273.681885 -0.000000 0.000000 1.000000 1.000000 1.000000
51 1 284.815200 173.244653 284.815200 173.244653 -0.000000 -0.000000 1.000000 1.000000 1.000000
52 1 123.400047 257.160261 123.400047 257.160261 0.000000 0.000000 1.000000 1.000000 1.000000
53 1 17.269641 205.420912 17.269641 205.420912 -0.000000 -0.000000 1.000000 1.000000 1.000000
54 1 218.880565 301.424080 218.880565 -1.471343 0.000000 0.000000 1.000000 1.000000 1.000000
55 1 225.987555 292.139135 225.987555 292.139135 -0.000000 0.000000 1.000000 1.000000 1.000000
56 1 17.324937 108.817608 17.324937 108.817608 -0.000000 0.000000 1.000000 1.000000 1.000000
57 1 36.611355 77.754441 36.611355 77.754441 0.000000 0.000000 1.000000 1.000000 1.000000
58 1 175.438630 166.921920 175.438630 166.921920 0.000000 -0.000000 1.000000 1.000000 1.000000
59 1 151.006065 159.676275 151.006065 159.676275 0.000000 -0.000000 1.000000 1.000000 1.000000
60 1 236.875483 92.428262 236.875483 92.428262 0.000000 -0.000000 1.000000 1.000000 1.000000
61 1 199.412913 39.217739 199.412913 39.217739 0.000000 -0.000000 1.000000 1.000000 1.000000
62 1 44.383319 261.665699 44.383319 261.665699 -0.000000 0.000000 1.000000 1.000000 1.000000
63 1 237.271502 218.139760 237.271502 218.139760 -0.000000 0.000000 1.000000 1.000000 1.000000
64 1 148.398073 60.562238 148.398073 60.562238 -0.000000 0.000000 1.000000 1.000000 1.000000
65 1 59.329266 235.567562 59.329266 235.567562 0.000000 0.000000 1.000000 1.000000 1.000000
66 1 2.075609 299.686960 2.075609 299.686960 0.000000 0.000000 1.000000 1.000000 1.000000
67 1 71.017457 220.420381 71.017457 220.420381 0.000000 0.000000 1.000000 1.000000 1.000000
68 1 235.130395 22.959785 235.130395 22.959785 0.000000 -0.000000 1.000000 1.000000 1.000000
69 1 111.403912 35.153852 111.403912 35.153852 0.000000 0.000000 1.000000 1.000000 1.000000
70 1 51.680433 301.958410 51.680433 301.958410 -0.000000 0.000000 1.000000 1.000000 1.000000
71 1 256.541844 61.148489 256.541844 61.148489 -0.000000 -0.000000 1.000000 1.000000 1.000000
72 1 24.751313 12.801819 24.751313 12.801819 -0.000000 -0.000000 1.000000 1.000000 1.000000
73 1 43.338782 80.654188 43.338782 80.654188 -0.000000 0.000000 1.000000 1.000000 1.000000
74 1 114.380307 64.767671 114.380307 64.767671 0.000000 -0.000000 1.000000 1.000000 1.000000
75 1 39.939364 31.233947 39.939364 31.233947 -0.000000 -0.000000 1.000000 1.000000 1.000000
76 1 279.645433 194.536408 279.645433 194.536408 -0.000000 -0.000000 1.000000 1.000000 1.000000
77 1 80.066523 65.454647 80.066523 65.454647 -0.000000 -0.000000 1.000000 1.000000 1.000000
78 1 158.088120 53.512538 158.088120 53.512538 0.000000 -0.000000 1.000000 1.000000 1.000000
79 1 38.224391 267.552108 38.224391 267.552108 0.000000 -0.000000 1.000000 1.000000 1.000000
80 1 276.072909 92.384626 276.072909 92.384626 0.000000 -0.000000 1.000000 1.000000 1.000000
81 1 22.773507 105.490194 22.773507 105.490194 0.000000 0.000000 1.000000 1.000000 1.000000
82 1 258.442320 17.022656 258.442320 17.022656 0.000000 0.000000 1.000000 1.000000 1.000000
83 1 166.320781 284.388915 166.320781 284.388915 -0.000000 0.000000 1.000000 1.000000 1.000000
84 1 31.473760 114.327620 31.473760 114.327620 0.000000 -0.000000 1.000000 1.000000 1.000000
85 1 234.682852 249.647608 234.682852 249.647608 -0.000000 0.000000 1.000000 1.000000 1.000000
86 1 16.534309 73.597739 16.534309 73.597739 -0.000000 0.000000 1.000000 1.000000 1.000000
87 1 172.969822 267.460566 172.969822 267.460566 0.000000 -0.000000 1.000000 1.000000 1.000000
88 1 280.380233 135.075420 280.380233 135.075420 0.000000 0.000000 1.000000 1.000000 1.000000
89 1 54.981108 196.689079 54.981108 196.689079 -0.000000 -0.000000 1.000000 1.000000 1.000000
90 1 205.689926 239.585442 205.689926 239.585442 -0.000000 -0.000000 1.000000 1.000000 1.000000
91 1 93.135140 231.334818 93.135140 231.334818 -0.000000 0.000000 1.000000 1.000000 1.000000
92 1 252.558613 219.260109 252.558613 219.260109 0.000000 0.000000 1.000000 1.000000 1.000000
93 1 288.232163 44.230646 288.232163 44.230646 0.000000 -0.000000 1.000000 1.000000 1.000000
94 1 51.611000 190.584622 51.611000 190.584622 0.000000 0.000000 1.000000 1.000000 1.000000
95 1 51.183952 67.762300 51.183952 67.762300 0.000000 0.000000 1.000000 1.000000 1.000000
96 1 58.781748 265.225218 58.781748 265.225218 -0.000000 0.000000 1.000000 1.000000 1.000000
97 1 108.473140 166.858560 108.473140 166.858560 0.000000 0.000000 1.000000 1.000000 1.000000
98 1 144.477165 58.517134 144.477165 58.517134 -0.000000 -0.000000 1.000000 1.000000 1.000000
99 1 276.125603 107.249668 276.125603 107.249668 0.000000 0.000000 1.000000 1.000000 1.000000
100 1 38.404214 151.614643 38.404214 151.614643 0.000000 -0.000000 1.000000 1.000000 1.000000
101 1 182.535496 201.456336 182.535496 201.456336 -0.000000 -0.000000 1.000000 1.000000 1.000000
102 1 49.038705 102.885178 49.038705 102.885178 -0.000000 -0.000000 1.000000 1.000000 1.000000
103 1 130.613799 136.810055 130.613799 136.810055 -0.000000 -0.000000 1.000000 1.000000 1.000000
104 1 58.986787 74.182412 58.986787 74.182412 -0.000000 -0.000000 1.000000 1.000000 1.000000
105 1 124.599495 52.274726 124.599495 52.274726 0.000000 0.000000 1.000000 1.000000 1.000000
106 1 274.256901 218.632350 274.256901 218.632350 -0.000000 0.000000 1.000000 1.000000 1.000000
107 1 85.657963 42.910066 85.657963 42.910066 0.000000 -0.000000 1.000000 1.000000 1.000000
108 1 163.635048 123.545536 163.635048 123.545536 0.000000 -0.000000 1.000000 1.000000 1.000000
109 1 242.701885 196.916499 242.701885 196.916499 -0.000000 0.000000 1.000000 1.000000 1.000000
110 1 234.963971 61.228733 234.963971 61.228733 -0.000000 -0.000000 1.000000 1.000000 1.000000
111 1 149.397474 244.164677 149.397474 244.164677 -0.000000 -0.000000 1.000000 1.000000 1.000000
112 1 118.564536 266.100424 118.564536 266.100424 -0.000000 -0.000000 1.000000 1.000000 1.000000
113 1 74.396954 107.452275 74.396954 107.452275 0.000000 0.000000 1.000000 1.000000 1.000000
114 1 75.715338 288.895759 75.715338 288.895759 0.000000 0.000000 1.000000 1.000000 1.000000
115 1 41.800453 170.976723 41.800453 170.976723 -0.000000 -0.000000 1.000000 1.000000 1.000000
116 1 87.722051 187.467501 87.722051 187.467501 0.000000 -0.000000 1.000000 1.000000 1.000000
117 1 265.159831 96.058696 265.159831 96.058696 0.000000 0.000000 1.000000 1.000000 1.000000
118 1 216.325265 219.778671 216.325265 219.778671 0.000000 -0.000000 1.000000 1.000000 1.000000
119 1 177.825064 80.375939 177.825064 80.375939 0.000000 -0.000000 1.000000 1.000000 1.000000
120 1 275.789133 265.100193 275.789133 265.100193 0.000000 -0.000000 1.000000 1.000000 1.000000
121 1 78.486820 1.175933 78.486820 304.071356 0.000000 -0.000000 1.000000 1.000000 1.000000
122 1 60.205845 178.984859 60.205845 178.984859 -0.000000 0.000000 1.000000 1.000000 1.000000
123 1 155.464992 97.418183 155.464992 97.418183 -0.000000 0.000000 1.000000 1.000000 1.000000
124 1 128.510303 107.959227 128.510303 107.959227 0.000000 -0.000000 1.000000 1.000000 1.000000
125 1 231.950951 144.048389 231.950951 144.048389 0.000000 0.000000 1.000000 1.000000 1.000000
126 1 206.353146 192.224948 206.353146 192.224948 -0.000000 0.000000 1.000000 1.000000 1.000000
127 1 264.588365 217.664599 264.588365 217.664599 0.000000 0.000000 1.000000 1.000000 1.000000
128 1 288.553422 12.991560 288.553422 12.991560 -0.000000 -0.000000 1.000000 1.000000 1.000000
129 1 179.832874 285.290149 179.832874 285.290149 0.000000 -0.000000 1.000000 1.000000 1.000000
130 1 246.053088 130.962747 246.053088 130.962747 0.000000 -0.000000 1.000000 1.000000 1.000000
131 1 247.091304 59.166502 247.091304 59.166502 0.000000 0.000000 1.000000 1.000000 1.000000
132 1 122.963203 277.925996 122.963203 277.925996 0.000000 0.000000 1.000000 1.000000 1.000000
133 1 107.842926 158.288230 107.842926 158.288230 -0.000000 -0.000000 1.000000 1.000000 1.000000
134 1 6.452137 29.084251 309.347560 29.084251 0.000000 -0.000000 1.000000 1.000000 1.000000
135 1 85.696702 202.806559 85.696702 202.806559 0.000000 -0.000000 1.000000 1.000000 1.000000
136 1 48.096030 190.763913 48.096030 190.763913 -0.000000 0.000000 1.000000 1.000000 1.000000
137 1 284.072280 254.882487 284.072280 254.882487 -0.000000 -0.000000 1.000000 1.000000 1.000000
138 1 234.504664 219.354157 234.504664 219.354157 -0.000000 0.000000 1.000000 1.000000 1.000000
139 1 97.226762 8.147294 97.226762 311.042717 -0.000000 0.000000 1.000000 1.000000 1.000000
140 1 177.929141 117.326119 177.929141 117.326119 0.000000 -0.000000 1.000000 1.000000 1.000000
141 1 275.836985 97.391930 275.836985 97.391930 0.000000 0.000000 1.000000 1.000000 1.000000
142 1 121.051179 166.766989 121.051179 166.766989 0.000000 -0.000000 1.000000 1.000000 1.000000
143 1 184.809450 260.312398 184.809450 260.312398 -0.000000 -0.000000 1.000000 1.000000 1.000000
144 1 195.173518 12.721003 195.173518 12.721003 -0.000000 0.000000 1.000000 1.000000 1.000000
145 1 213.729562 91.845322 213.729562 91.845322 0.000000 0.000000 1.000000 1.000000 1.000000
146 1 101.939843 11.405138 101.939843 11.405138 -0.000000 -0.000000 1.000000 1.000000 1.000000
147 1 298.368905 107.908957 298.368905 107.908957 0.000000 -0.000000 1.000000 1.000000 1.000000
148 1 291.806580 77.889998 -11.088843 77.889998 -0.000000 0.000000 1.000000 1.000000 1.000000
149 1 170.245526 258.257239 170.245526 258.257239 -0.000000 -0.000000 1.000000 1.000000 1.000000
150 1 152.902507 279.561005 152.902507 279.561005 0.000000 -0.000000 1.000000 1.000000 1.000000
151 1 205.938286 175.109967 205.938286 175.109967 -0.000000 -0.000000 1.000000 1.000000 1.000000
152 1 13.591414 202.445215 13.591414 202.445215 -0.000000 -0.000000 1.000000 1.000000 1.000000
153 1 14.479305 38.807874 14.479305 38.807874 0.000000 -0.000000 1.000000 1.000000 1.000000
154 1 218.896220 225.386899 218.896220 225.386899 0.000000 -0.000000 1.000000 1.000000 1.000000
155 1 229.629978 22.311331 229.629978 22.311331 0.000000 0.000000 1.000000 1.000000 1.000000
156 1 219.228763 183.127097 219.228763 183.127097 0.000000 0.000000 1.000000 1.000000 1.000000
157 1 242.654828 212.910395 242.654828 212.910395 -0.000000 0.000000 1.000000 1.000000 1.000000
158 1 79.382777 16.673714 79.382777 16.673714 -0.000000 0.000000 1.000000 1.000000 1.000000
159 1 158.466611 148.146984 158.466611 148.146984 0.000000 -0.000000 1.000000 1.000000 1.000000
160 1 159.849831 181.356965 159.849831 181.356965 -0.000000 0.000000 1.000000 1.000000 1.000000
161 1 274.225442 295.417046 274.225442 295.417046 0.000000 -0.000000 1.000000 1.000000 1.000000
162 1 226.177618 73.960181 226.177618 73.960181 0.000000 0.000000 1.000000 1.000000 1.000000
163 1 282.043700 33.859492 282.043700 33.859492 0.000000 0.000000 1.000000 1.000000 1.000000
164 1 61.333933 59.406500 61.333933 59.406500 0.000000 0.000000 1.000000 1.000000 1.000000
165 1 59.646219 26.062919 59.646219 26.062919 0.000000 0.000000 1.000000 1.000000 1.000000
166 1 62.582671 116.000922 62.582671 116.000922 -0.000000 -0.000000 1.000000 1.000000 1.000000
167 1 30.254471 272.532598 30.254471 272.532598 -0.000000 -0.000000 1.000000 1.000000 1.000000
168 1 279.977109 71.311997 279.977109 71.311997 0.000000 0.000000 1.000000 1.000000 1.000000
169 1 256.187909 233.550899 256.187909 233.550899 0.000000 0.000000 1.000000 1.000000 1.000000
170 1 281.474789 47.144701 -21.420634 47.144701 -0.000000 -0.000000 1.000000 1.000000 1.000000
171 1 182.307141 85.356096 182.307141 85.356096 0.000000 -0.000000 1.000000 1.000000 1.000000
172 1 6.804374 109.681069 6.804374 109.681069 0.000000 -0.000000 1.000000 1.000000 1.000000
173 1 71.820699 49.587695 71.820699 49.587695 0.000000 0.000000 1.000000 1.000000 1.000000
174 1 65.579239 146.954508 65.579239 146.954508 0.000000 -0.000000 1.000000 1.000000 1.000000
175 1 20.377569 283.142983 20.377569 283.142983 -0.000000 -0.000000 1.000000 1.000000 1.000000
176 1 58.646562 32.223058 58.646562 32.223058 0.000000 -0.000000 1.000000 1.000000 1.000000
177 1 165.680071 249.072844 165.680071 249.072844 0.000000 -0.000000 1.000000 1.000000 1.000000
178 1 16.390345 48.517645 16.390345 48.517645 -0.000000 0.000000 1.000000 1.000000 1.000000
179 1 76.654204 14.707709 76.654204 14.707709 0.000000 0.000000 1.000000 1.000000 1.000000
180 1 126.077942 100.037316 126.077942 100.037316 -0.000000 -0.000000 1.000000 1.000000 1.000000
181 1 95.070698 94.473781 95.070698 94.473781 -0.000000 -0.000000 1.000000 1.000000 1.000000
182 1 68.356926 216.772824 68.356926 216.772824 -0.000000 -0.000000 1.000000 1.000000 1.000000
183 1 243.915182 4.626764 243.915182 4.626764 -0.000000 0.000000 1.000000 1.000000 1.000000
184 1 243.398060 78.194710 243.398060 78.194710 0.000000 -0.000000 1.000000 1.000000 1.000000
185 1 141.186676 113.442139 141.186676 113.442139 -0.000000 0.000000 1.000000 1.000000 1.000000
186 1 33.269638 20.587312 33.269638 20.587312 -0.000000 -0.000000 1.000000 1.000000 1.000000
187 1 248.685577 240.520495 248.685577 240.520495 0.000000 0.000000 1.000000 1.000000 1.000000
188 1 261.884464 227.595217 261.884464 227.595217 0.000000 -0.000000 1.000000 1.000000 1.000000
189 1 155.491957 126.279140 155.491957 126.279140 -0.000000 -0.000000 1.000000 1.000000 1.000000
190 1 69.579829 91.928204 69.579829 91.928204 0.000000 0.000000 1.000000 1.000000 1.000000
191 1 59.240805 217.568490 59.240805 217.568490 0.000000 0.000000 1.000000 1.000000 1.000000
192 1 274.706326 211.602074 274.706326 211.602074 -0.000000 0.000000 1.000000 1.000000 1.000000
193 1 185.955351 205.851533 185.955351 205.851533 0.000000 0.000000 1.000000 1.000000 1.000000
194 1 227.680424 299.040657 227.680424 -3.854766 0.000000 -0.000000 1.000000 1.000000 1.000000
195 1 164.471891 30.190430 164.471891 30.190430 0.000000 0.000000 1.000000 1.000000 1.000000
196 1 184.397781 232.360132 184.397781 232.360132 -0.000000 0.000000 1.000000 1.000000 1.000000
197 1 256.943485 121.119653 256.943485 121.119653 -0.000000 0.000000 1.000000 1.000000 1.000000
198 1 251.595096 37.118783 251.595096 37.118783 0.000000 -0.000000 1.000000 1.000000 1.000000
199 1 172.369670 244.871320 172.369670 244.871320 -0.000000 0.000000 1.000000 1.000000 1.000000
200 1 64.034593 77.939254 64.034593 77.939254 -0.000000 0.000000 1.000000 1.000000 1.000000
201 1 47.788534 254.028528 47.788534 254.028528 -0.000000 0.000000 1.000000 1.000000 1.000000
202 1 111.305013 175.529670 111.305013 175.529670 0.000000 0.000000 1.000000 1.000000 1.000000
203 1 109.758624 155.203744 109.758624 155.203744 -0.000000 -0.000000 1.000000 1.000000 1.000000
204 1 11.784681 104.642604 11.784681 104.642604 -0.000000 -0.000000 1.000000 1.000000 1.000000
205 1 43.833306 241.570097 43.833306 241.570097 -0.000000 -0.000000 1.000000 1.000000 1.000000
206 1 16.074409 133.726569 16.074409 133.726569 -0.000000 -0.000000 1.000000 1.000000 1.000000
207 1 298.799566 199.049300 -4.095857 199.049300 0.000000 -0.000000 1.000000 1.000000 1.000000
208 1 292.538504 136.950385 292.538504 136.950385 0.000000 -0.000000 1.000000 1.000000 1.000000
209 1 212.347002 76.442103 212.347002 76.442103 -0.000000 0.000000 1.000000 1.000000 1.000000
210 1 49.949212 111.437928 49.949212 111.437928 -0.000000 -0.000000 1.000000 1.000000 1.000000
211 1 116.080007 44.868426 116.080007 44.868426 -0.000000 -0.000000 1.000000 1.000000 1.000000
212 1 226.737317 241.279908 226.737317 241.279908 0.000000 0.000000 1.000000 1.000000 1.000000
213 1 155.701444 147.413403 155.701444 147.413403 -0.000000 0.000000 1.000000 1.000000 1.000000
214 1 179.736792 120.708864 179.736792 120.708864 -0.000000 -0.000000 1.000000 1.000000 1.000000
215 1 65.220185 212.247547 65.220185 212.247547 -0.000000 0.000000 1.000000 1.000000 1.000000
216 1 24.089986 48.774931 24.089986 48.774931 0.000000 0.000000 1.000000 1.000000 1.000000
217 1 91.364168 272.131528 91.364168 272.131528 0.000000 0.000000 1.000000 1.000000 1.000000
218 1 35.849648 65.230301 35.849648 65.230301 0.000000 -0.000000 1.000000 1.000000 1.000000
219 1 140.227232 54.939960 140.227232 54.939960 0.000000 0.000000 1.000000 1.000000 1.000000
220 1 286.535708 270.980846 286.535708 270.980846 -0.000000 0.000000 1.000000 1.000000 1.000000
221 1 272.378903 254.549750 272.378903 254.549750 0.000000 -0.000000 1.000000 1.000000 1.000000
222 1 105.448914 134.929283 105.448914 134.929283 -0.000000 0.000000 1.000000 1.000000 1.000000
223 1 196.094911 152.014051 196.094911 152.014051 -0.000000 -0.000000 1.000000 1.000000 1.000000
224 1 239.105777 155.013694 239.105777 155.013694 0.000000 0.000000 1.000000 1.000000 1.000000
225 1 96.311894 246.516498 96.311894 246.516498 0.000000 0.000000 1.000000 1.000000 1.000000
226 1 7.778977 72.519359 7.778977 72.519359 0.000000 0.000000 1.000000 1.000000 1.000000
227 1 241.487147 286.725001 241.487147 286.725001 -0.000000 0.000000 1.000000 1.000000 1.000000
228 1 123.175606 244.756003 123.175606 244.756003 0.000000 0.000000 1.000000 1.000000 1.000000
229 1 252.351010 205.255855 252.351010 205.255855 0.000000 0.000000 1.000000 1.000000 1.000000
230 1 19.009202 36.651954 321.904625 36.651954 0.000000 -0.000000 1.000000 1.000000 1.000000
231 1 273.116185 257.949844 273.116185 257.949844 0.000000 0.000000 1.000000 1.000000 1.000000
232 1 286.389594 229.157553 286.389594 229.157553 -0.000000 -0.000000 1.000000 1.000000 1.000000
233 1 18.532083 270.697190 18.532083 270.697190 0.000000 0.000000 1.000000 1.000000 1.000000
234 1 26.441166 80.373880 26.441166 80.373880 -0.000000 0.000000 1.000000 1.000000 1.000000
235 1 188.760009 185.415743 188.760009 185.415743 -0.000000 0.000000 1.000000 1.000000 1.000000
236 1 175.915211 279.293852 175.915211 279.293852 0.000000 0.000000 1.000000 1.000000 1.000000
237 1 117.522240 113.475089 117.522240 113.475089 -0.000000 -0.000000 1.000000 1.000000 1.000000
238 1 160.443579 30.805981 160.443579 30.805981 0.000000 -0.000000 1.000000 1.000000 1.000000
239 1 159.063571 164.682773 159.063571 164.682773 -0.000000 0.000000 1.000000 1.000000 1.000000
240 1 132.290401 41.630835 132.290401 41.630835 0.000000 0.000000 1.000000 1.000000 1.000000
241 1 211.596673 285.316985 211.596673 285.316985 -0.000000 0.000000 1.000000 1.000000 1.000000
242 1 121.930965 61.049345 121.930965 61.049345 -0.000000 -0.000000 1.000000 1.000000 1.000000
243 1 224.445457 164.582216 224.445457 164.582216 0.000000 0.000000 1.000000 1.000000 1.000000
244 1 1.462788 250.810060 1.462788 250.810060 -0.000000 0.000000 1.000000 1.000000 1.000000
245 1 48.160852 278.662537 48.160852 278.662537 -0.000000 -0.000000 1.000000 1.000000 1.000000
246 1 94.092131 173.842761 94.092131 173.842761 0.000000 -0.000000 1.000000 1.000000 1.000000
247 1 278.576724 43.627592 278.576724 43.627592 -0.000000 -0.000000 1.000000 1.000000 1.000000
248 1 294.915448 148.579664 294.915448 148.579664 -0.000000 0.000000 1.000000 1.000000 1.000000
249 1 38.695814 80.869598 38.695814 80.869598 -0.000000 0.000000 1.000000 1.000000 1.000000
250 1 149.558095 68.987680 149.558095 68.987680 0.000000 -0.000000 1.000000 1.000000 1.000000
251 1 96.607533 210.053119 96.607533 210.053119 0.000000 0.000000 1.000000 1.000000 1.000000
252 1 135.816077 218.951704 135.816077 218.951704 0.000000 -0.000000 1.000000 1.000000 1.000000
253 1 17.238505 80.172171 17.238505 80.172171 -0.000000 0.000000 1.000000 1.000000 1.000000
254 1 190.137957 138.886271 190.137957 138.886271 -0.000000 0.000000 1.000000 1.000000 1.000000
255 1 17.227612 142.164475 17.227612 142.164475 0.000000 -0.000000 1.000000 1.000000 1.000000
256 1 40.134807 295.980134 40.134807 295.980134 -0.000000 -0.000000 1.000000 1.000000 1.000000
257 1 80.878435 107.797250 80.878435 107.797250 -0.000001 -0.000001 1.000000 1.000000 1.000000
258 1 10.185266 264.792675 10.185266 264.792675 0.000000 -0.000000 1.000000 1.000000 1.000000
259 1 223.823779 128.742597 223.823779 128.742597 0.000000 0.000000 1.000000 1.000000 1.000000
260 1 84.928921 263.277426 84.928921 263.277426 0.000000 -0.000000 1.000000 1.000000 1.000000
261 1 64.073179 272.381823 64.073179 272.381823 -0.000000 0.000000 1.000000 1.000000 1.000000
262 1 84.502740 226.711625 84.502740 226.711625 -0.000000 -0.000000 1.000000 1.000000 1.000000
263 1 288.500728 25.858935 288.500728 25.858935 0.000000 -0.000000 1.000000 1.000000 1.000000
264 1 248.051711 295.167078 248.051711 295.167078 -0.000000 0.000000 1.000000 1.000000 1.000000
265 1 296.137294 84.464094 -6.758129 84.464094 0.000000 -0.000000 1.000000 1.000000 1.000000
266 1 142.117378 221.094041 142.117378 221.094041 0.000000 0.000000 1.000000 1.000000 1.000000
267 1 63.316887 24.026311 63.316887 24.026311 0.000000 -0.000000 1.000000 1.000000 1.000000
268 1 104.017412 115.135811 104.017412 115.135811 0.000000 0.000000 1.000000 1.000000 1.000000
269 1 62.616520 123.243091 62.616520 123.243091 -0.000000 0.000000 1.000000 1.000000 1.000000
270 1 205.025574 129.052580 205.025574 129.052580 -0.000000 -0.000000 1.000000 1.000000 1.000000
271 1 142.229159 134.220606 142.229159 134.220606 0.000000 -0.000000 1.000000 1.000000 1.000000
272 1 69.002512 15.529587 69.002512 15.529587 0.000000 -0.000000 1.000000 1.000000 1.000000
273 1 288.196306 40.652558 288.196306 40.652558 -0.000000 0.000000 1.000000 1.000000 1.000000
274 1 94.901522 168.487153 94.901522 168.487153 0.000000 0.000000 1.000000 1.000000 1.000000
275 1 212.636754 158.599981 212.636754 158.599981 0.000000 0.000000 1.000000 1.000000 1.000000
276 1 223.006232 234.658412 223.006232 234.658412 0.000000 0.000000 1.000000 1.000000 1.000000
277 1 244.334392 70.843049 244.334392 70.843049 0.000000 0.000000 1.000000 1.000000 1.000000
278 1 62.230973 13.885002 62.230973 13.885002 -0.000000 0.000000 1.000000 1.000000 1.000000
279 1 233.658196 179.401453 233.658196 179.401453 -0.000000 0.000000 1.000000 1.000000 1.000000
280 1 41.388362 6.708835 41.388362 309.604258 0.000000 0.000000 1.000000 1.000000 1.000000
281 1 228.643224 128.448161 228.643224 128.448161 0.000000 0.000000 1.000000 1.000000 1.000000
282 1 261.443486 144.892261 261.443486 144.892261 -0.000000 -0.000000 1.000000 1.000000 1.000000
283 1 127.256710 197.002881 127.256710 197.002881 0.000000 0.000000 1.000000 1.000000 1.000000
284 1 126.608583 80.335694 126.608583 80.335694 0.000000 0.000000 1.000000 1.000000 1.000000
285 1 205.555745 38.853786 205.555745 38.853786 -0.000000 -0.000000 1.000000 1.000000 1.000000
286 1 164.777701 119.028007 164.777701 119.028007 0.000000 0.000000 1.000000 1.000000 1.000000
287 1 20.389927 58.922073 323.285350 58.922073 0.000000 0.000000 1.000000 1.000000 1.000000
288 1 204.830868 180.063168 204.830868 180.063168 -0.000000 -0.000000 1.000000 1.000000 1.000000
289 1 35.227088 98.906163 35.227088 98.906163 -0.000000 -0.000000 1.000000 1.000000 1.000000
290 1 209.167341 16.973348 209.167341 16.973348 -0.000000 0.000000 1.000000 1.000000 1.000000
291 1 62.970545 203.459280 62.970545 203.459280 0.000000 -0.000000 1.000000 1.000000 1.000000
292 1 52.178412 179.075446 52.178412 179.075446 -0.000000 -0.000000 1.000000 1.000000 1.000000
293 1 99.708871 224.402148 99.708871 224.402148 -0.000000 0.000000 1.000000 1.000000 1.000000
294 1 36.534911 211.280896 36.534911 211.280896 0.000000 -0.000000 1.000000 1.000000 1.000000
295 1 280.347677 77.951762 280.347677 77.951762 -0.000000 -0.000000 1.000000 1.000000 1.000000
296 1 122.353324 185.925296 122.353324 185.925296 -0.000000 -0.000000 1.000000 1.000000 1.000000
297 1 120.950885 188.295704 120.950885 188.295704 0.000000 0.000000 1.000000 1.000000 1.000000
298 1 17.610249 184.474331 17.610249 184.474331 0.000000 0.000000 1.000000 1.000000 1.000000
299 1 83.746518 133.614233 83.746518 133.614233 -0.000000 -0.000000 1.000000 1.000000 1.000000
300 1 259.277322 297.606680 259.277322 297.606680 -0.000000 -0.000000 1.000000 1.000000 1.000000
301 1 300.315645 118.119238 300.315645 118.119238 -0.000000 -0.000000 1.000000 1.000000 1.000000
302 1 59.497348 302.032365 59.497348 302.032365 -0.000000 -0.000000 1.000000 1.000000 1.000000
303 1 154.587642 116.875311 154.587642 116.875311 -0.000000 0.000000 1.000000 1.000000 1.000000
304 1 194.777635 62.312823 194.777635 62.312823 -0.000000 0.000000 1.000000 1.000000 1.000000
305 1 275.971152 138.262642 275.971152 138.262642 0.000000 -0.000000 1.000000 1.000000 1.000000
306 1 14.169555 30.223940 14.169555 30.223940 0.000000 0.000000 1.000000 1.000000 1.000000
307 1 242.768057 30.839962 242.768057 30.839962 -0.000000 0.000000 1.000000 1.000000 1.000000
308 1 105.945060 113.258008 105.945060 113.258008 -0.000000 -0.000000 1.000000 1.000000 1.000000
309 1 130.545910 20.341136 130.545910 20.341136 -0.000000 0.000000 1.000000 1.000000 1.000000
310 1 41.668788 53.037142 41.668788 53.037142 0.000000 -0.000000 1.000000 1.000000 1.000000
311 1 251.064666 234.652166 251.064666 234.652166 0.000000 0.000000 1.000000 1.000000 1.000000
312 1 299.166859 185.871787 299.166859 185.871787 -0.000000 0.000000 1.000000 1.000000 1.000000
313 1 48.132853 134.474664 48.132853 134.474664 0.000000 -0.000000 1.000000 1.000000 1.000000
314 1 174.323756 295.760597 174.323756 -7.134826 -0.000000 0.000000 1.000000 1.000000 1.000000
315 1 234.521525 247.530384 234.521525 247.530384 0.000000 0.000000 1.000000 1.000000 1.000000