ITEM: TIMESTEP
2000.000000
ITEM: NUMBER OF ATOMS
5000
ITEM: BOX BOUNDS xy xz yz
0 255.348515 0
0 255.348515 0
0 2 0
ITEM: ATOMS id type x y xu yu vx vy radius m z
0 1 165.094705 71.756412 165.094705 71.756412 -0.000000 0.000000 1.000000 1.000000 1.000000
1 1 4.782293 205.085085 260.130808 205.085085 -0.000000 0.000000 1.000000 1.000000 1.000000
2 1 116.050603 87.906321 116.050603 87.906321 0.000000 -0.000000 1.000000 1.000000 1.000000
3 1 63.945635 92.039496 63.945635 92.039496 -0.000000 -0.000000 1.000000 1.000000 1.000000
4 1 218.392527 155.012012 218.392527 155.012012 -0.000000 -0.000000 1.000000 1.000000 1.000000
5 1 26.851275 134.422063 26.851275 134.422063 -0.000000 -0.000000 1.000000 1.000000 1.000000
6 1 20.919124 226.728224 20.919124 226.728224 -0.000000 0.000000 1.000000 1.000000 1.000000
7 1 81.856657 75.757807 81.856657 75.757807 0.000000 0.000000 1.000000 1.000000 1.000000
8 1 77.887277 56.964883 77.887277 56.964883 -0.000000 -0.000000 1.000000 1.000000 1.000000
9 1 56.939670 3.277122 56.939670 3.277122 -0.000000 0.000000 1.000000 1.000000 1.000000
10 1 196.319523 66.030904 196.319523 66.030904 0.000000 -0.000000 1.000000 1.000000 1.000000
11 1 20.337598 195.989537 20.337598 195.989537 0.000000 0.000000 1.000000 1.000000 1.000000
12 1 17.717750 252.748717 273.066265 -2.599798 0.000000 0.000000 1.000000 1.000000 1.000000
13 1 204.502604 189.849041 204.502604 189.849041 0.000000 -0.000000 1.000000 1.000000 1.000000
14 1 164.591369 248.090334 164.591369 -7.258181 0.000000 -0.000000 1.000000 1.000000 1.000000
15 1 71.670917 107.385727 71.670917 107.385727 -0.000000 0.000000 1.000000 1.000000 1.000000
16 1 111.460318 133.720579 111.460318 133.720579 -0.000000 -0.000000 1.000000 1.000000 1.000000
17 1 49.525858 36.397699 49.525858 36.397699 -0.000000 0.000000 1.000000 1.000000 1.000000
18 1 134.779217 17.083769 134.779217 17.083769 -0.000000 -0.000000 1.000000 1.000000 1.000000
19 1 132.016551 235.559844 132.016551 235.559844 0.000000 0.000000 1.000000 1.000000 1.000000
20 1 217.767371 201.705443 217.767371 201.705443 -0.000000 -0.000000 1.000000 1.000000 1.000000
21 1 220.931158 221.098178 220.931158 221.098178 -0.000000 -0.000000 1.000000 1.000000 1.000000
22 1 128.166810 39.045788 128.166810 39.045788 -0.000000 0.000000 1.000000 1.000000 1.000000
23 1 110.074305 60.888951 110.074305 60.888951 -0.000000 0.000000 1.000000 1.000000 1.000000
24 1 252.988890 183.076096 -2.359625 183.076096 0.000000 -0.000000 1.000000 1.000000 1.000000
25 1 186.510154 90.814137 186.510154 90.814137 0.000000 0.000000 1.000000 1.000000 1.000000
26 1 96.720108 174.670565 96.720108 174.670565 -0.000000 -0.000000 1.000000 1.000000 1.000000
27 1 5.704351 117.843390 5.704351 117.843390 0.000000 0.000000 1.000000 1.000000 1.000000
28 1 122.387919 241.554655 122.387919 241.554655 -0.000000 0.000000 1.000000 1.000000 1.000000
29 1 227.417369 240.248608 227.417369 240.248608 0.000000 0.000000 1.000000 1.000000 1.000000
30 1 134.632058 219.470957 134.632058 219.470957 0.000000 0.000000 1.000000 1.000000 1.000000
31 1 247.520535 198.350048 -7.827980 198.350048 -0.000000 0.000000 1.000000 1.000000 1.000000
32 1 15.174277 223.909388 15.174277 223.909388 -0.000000 -0.000000 1.000000 1.000000 1.000000
33 1 160.561634 13.451333 160.561634 13.451333 0.000000 -0.000000 1.000000 1.000000 1.000000
34 1 5.682788 92.796886 261.031303 92.796886 0.000000 -0.000000 1.000000 1.000000 1.000000
35 1 12.449347 92.807300 12.449347 92.807300 0.000000 -0.000000 1.000000 1.000000 1.000000
36 1 79.398371 29.157526 79.398371 29.157526 -0.000000 -0.000000 1.000000 1.000000 1.000000
37 1 17.010530 230.093053 17.010530 230.093053 0.000000 -0.000000 1.000000 1.000000 1.000000
38 1 18.862839 24.782263 18.862839 24.782263 -0.000000 -0.000000 1.000000 1.000000 1.000000
39 1 154.985241 7.952386 154.985241 7.952386 -0.000000 0.000000 1.000000 1.000000 1.000000
40 1 84.760406 153.247847 84.760406 153.247847 0.000000 -0.000000 1.000000 1.000000 1.000000
41 1 252.258924 101.556295 -3.089591 101.556295 -0.000000 -0.000000 1.000000 1.000000 1.000000
42 1 238.518641 37.011855 238.518641 37.011855 0.000000 -0.000000 1.000000 1.000000 1.000000
43 1 21.996505 47.554670 21.996505 47.554670 0.000000 0.000000 1.000000 1.000000 1.000000
44 1 127.532052 127.661124 127.532052 127.661124 -0.000000 -0.000000 1.000000 1.000000 1.000000
45 1 20.652135 79.830247 20.652135 79.830247 -0.000000 0.000000 1.000000 1.000000 1.000000
46 1 18.469538 134.383996 273.818053 134.383996 0.000000 -0.000000 1.000000 1.000000 1.000000
47 1 7.141794 216.612408 7.141794 216.612408 -0.000000 0.000000 1.000000 1.000000 1.000000
48 1 126.141670 64.731418 126.141670 64.731418 0.000000 0.000000 1.000000 1.000000 1.000000
49 1 117.344739 122.590771 117.344739 122.590771 -0.000000 0.000000 1.000000 1.000000 1.000000
50 1 106.509810 145.634068 106.509810 145.634068 0.000000 -0.000000 1.000000 1.000000 1.000000
51 1 124.511751 100.494989 124.511751 100.494989 -0.000000 0.000000 1.000000 1.000000 1.000000
52 1 240.858803 22.541146 -14.489712 22.541146 -0.000000 -0.000000 1.000000 1.000000 1.000000
53 1 209.304744 174.938084 209.304744 174.938084 -0.000000 0.000000 1.000000 1.000000 1.000000
54 1 215.349877 96.220123 215.349877 96.220123 0.000000 0.000000 1.000000 1.000000 1.000000
55 1 47.980237 168.361631 47.980237 168.361631 -0.000000 0.000000 1.000000 1.000000 1.000000
56 1 137.597118 72.382695 137.597118 72.382695 -0.000000 0.000000 1.000000 1.000000 1.000000
57 1 81.040146 158.237441 81.040146 158.237441 0.000000 0.000000 1.000000 1.000000 1.000000
58 1 123.969407 124.745225 123.969407 124.745225 0.000000 0.000000 1.000000 1.000000 1.000000
59 1 204.553062 173.552310 204.553062 173.552310 0.000000 0.000000 1.000000 1.000000 1.000000
60 1 234.569992 7.830625 234.569992 7.830625 -0.000000 -0.000000 1.000000 1.000000 1.000000
61 1 54.466827 15.011438 54.466827 15.011438 0.000000 -0.000000 1.000000 1.000000 1.000000
62 1 219.378433 128.529009 219.378433 128.529009 0.000000 0.000000 1.000000 1.000000 1.000000
63 1 128.733171 252.392490 128.733171 252.392490 0.000000 0.000000 1.000000 1.000000 1.000000
64 1 69.725944 129.730390 69.725944 129.730390 0.000000 0.000000 1.000000 1.000000 1.000000
65 1 209.568562 189.079343 209.568562 189.079343 -0.000000 0.000000 1.000000 1.000000 1.000000
66 1 185.526250 134.160817 185.526250 134.160817 0.000000 -0.000000 1.000000 1.000000 1.000000
67 1 180.131352 72.530680 180.131352 72.530680 0.000000 -0.000000 1.000000 1.000000 1.000000
68 1 118.649955 45.009415 118.649955 45.009415 0.000000 -0.000000 1.000000 1.000000 1.000000
69 1 248.174726 182.736676 248.174726 182.736676 -0.000000 -0.000000 1.000000 1.000000 1.000000
70 1 112.275506 28.761756 112.275506 28.761756 -0.000000 0.000000 1.000000 1.000000 1.000000
71 1 11.195261 121.451944 11.195261 121.451944 -0.000000 -0.000000 1.000000 1.000000 1.000000
72 1 73.927498 139.358255 73.927498 139.358255 0.000000 0.000000 1.000000 1.000000 1.000000
73 1 157.026003 206.066386 157.026003 206.066386 -0.000000 0.000000 1.000000 1.000000 1.000000
74 1 171.903195 254.312473 171.903195 254.312473 0.000000 0.000000 1.000000 1.000000 1.000000
75 1 229.119543 32.828289 229.119543 32.828289 -0.000000 -0.000000 1.000000 1.000000 1.000000
76 1 201.552496 238.502619 201.552496 238.502619 -0.000000 -0.000000 1.000000 1.000000 1.000000
77 1 127.522051 232.331406 127.522051 232.331406 -0.000000 0.000000 1.000000 1.000000 1.000000
78 1 18.664377 60.268069 18.664377 60.268069 0.000000 0.000000 1.000000 1.000000 1.000000
79 1 198.181196 130.395491 198.181196 130.395491 -0.000000 -0.000000 1.000000 1.000000 1.000000
80 1 32.681859 83.524727 32.681859 83.524727 -0.000000 -0.000000 1.000000 1.000000 1.000000
81 1 89.697954 52.471088 89.697954 52.471088 -0.000000 -0.000000 1.000000 1.000000 1.000000
82 1 34.170102 137.246546 34.170102 137.246546 0.000000 -0.000000 1.000000 1.000000 1.000000
83 1 171.878571 214.048709 171.878571 214.048709 -0.000000 0.000000 1.000000 1.000000 1.000000
84 1 217.725213 196.007270 217.725213 196.007270 0.000000 -0.000000 1.000000 1.000000 1.000000
85 1 28.060726 69.415363 28.060726 69.415363 0.000000 -0.000000 1.000000 1.000000 1.000000
86 1 198.721037 207.658063 198.721037 207.658063 -0.000000 0.000000 1.000000 1.000000 1.000000
87 1 178.230333 206.887798 178.230333 206.887798 0.000000 0.000000 1.000000 1.000000 1.000000
88 1 199.138203 202.833077 199.138203 202.833077 0.000000 -0.000000 1.000000 1.000000 1.000000
89 1 194.430166 81.084326 194.430166 81.084326 -0.000000 -0.000000 1.000000 1.000000 1.000000
90 1 21.775594 50.012167 21.775594 50.012167 0.000000 0.000000 1.000000 1.000000 1.000000
91 1 241.709557 250.184330 241.709557 -5.164185 -0.000000 -0.000000 1.000000 1.000000 1.000000
92 1 14.939256 236.934996 14.939256 236.934996 0.000000 0.000000 1.000000 1.000000 1.000000
93 1 105.118596 43.266387 105.118596 43.266387 0.000000 0.000000 1.000000 1.000000 1.000000
94 1 212.986193 29.412367 212.986193 29.412367 -0.000000 0.000000 1.000000 1.000000 1.000000
95 1 98.109687 62.363056 98.109687 62.363056 0.000000 0.000000 1.000000 1.000000 1.000000
96 1 89.108560 148.446420 89.108560 148.446420 0.000000 -0.000000 1.000000 1.000000 1.000000
97 1 234.950290 151.819610 234.950290 151.819610 0.000000 -0.000000 1.000000 1.000000 1.000000
98 1 30.963123 236.126814 30.963123 236.126814 -0.000000 0.000000 1.000000 1.000000 1.000000
99 1 107.737807 109.642582 107.737807 109.642582 0.000000 -0.000000 1.000000 1.000000 1.000000
100 1 134.108334 174.772058 134.108334 174.772058 0.000000 0.000000 1.000000 1.000000 1.000000
101 1 165.849486 43.787917 165.849486 43.787917 -0.000000 -0.000000 1.000000 1.000000 1.000000
102 1 252.242999 47.565822 252.242999 47.565822 -0.000000 -0.000000 1.000000 1.000000 1.000000
103 1 120.378948 239.174352 120.378948 239.174352 -0.000000 -0.000000 1.000000 1.000000 1.000000
104 1 99.696527 220.077317 99.696527 220.077317 0.000000 -0.000000 1.000000 1.000000 1.000000
105 1 148.104408 71.834457 148.104408 71.834457 -0.000000 -0.000000 1.000000 1.000000 1.000000
106 1 147.046201 12.252263 147.046201 267.600778 0.000000 0.000000 1.000000 1.000000 1.000000
107 1 236.850479 170.544378 236.850479 170.544378 -0.000000 -0.000000 1.000000 1.000000 1.000000
108 1 95.753292 0.925340 95.753292 256.273855 -0.000000 0.000000 1.000000 1.000000 1.000000
109 1 77.203432 34.467402 77.203432 34.467402 0.000000 0.000000 1.000000 1.000000 1.000000
110 1 36.919538 192.326777 36.919538 192.326777 0.000000 -0.000000 1.000000 1.000000 1.000000
111 1 43.594859 122.401954 43.594859 122.401954 -0.000000 0.000000 1.000000 1.000000 1.000000
112 1 164.138311 10.556179 164.138311 265.904694 0.000000 -0.000000 1.000000 1.000000 1.000000
113 1 232.237672 88.729070 232.237672 88.729070 -0.000000 -0.000000 1.000000 1.000000 1.000000
114 1 7.315909 32.347191 262.664424 32.347191 0.000000 -0.000000 1.000000 1.000000 1.000000
115 1 33.760287 132.334367 33.760287 132.334367 0.000000 -0.000000 1.000000 1.000000 1.000000
116 1 40.699887 145.926826 40.699887 145.926826 0.000000 -0.000000 1.000000 1.000000 1.000000
117 1 136.350006 250.339505 136.350006 -5.009010 0.000000 -0.000000 1.000000 1.000000 1.000000
118 1 176.956814 6.320210 176.956814 6.320210 -0.000000 0.000000 1.000000 1.000000 1.000000
119 1 145.279922 162.445924 145.279922 162.445924 0.000000 0.000000 1.000000 1.000000 1.000000
120 1 221.126527 124.486246 221.126527 124.486246 -0.000000 -0.000000 1.000000 1.000000 1.000000
121 1 54.852304 151.563494 54.852304 151.563494 0.000000 0.000000 1.000000 1.000000 1.000000
122 1 56.802104 93.509631 56.802104 93.509631 0.000000 -0.000000 1.000000 1.000000 1.000000
123 1 178.100460 159.627702 178.100460 159.627702 -0.000000 0.000000 1.000000 1.000000 1.000000
124 1 145.244982 246.971183 145.244982 246.971183 -0.000000 -0.000000 1.000000 1.000000 1.000000
125 1 140.852962 240.640747 140.852962 240.640747 -0.000000 0.000000 1.000000 1.000000 1.000000
126 1 56.119165 229.878996 56.119165 229.878996 0.000000 0.000000 1.000000 1.000000 1.000000
127 1 201.033400 125.078541 201.033400 125.078541 -0.000000 0.000000 1.000000 1.000000 1.000000
128 1 10.904229 57.138420 10.904229 57.138420 0.000000 -0.000000 1.000000 1.000000 1.000000
129 1 30.804411 155.195433 30.804411 155.195433 -0.000000 -0.000000 1.000000 1.000000 1.000000
130 1 207.996973 164.080617 207.996973 164.080617 -0.000000 0.000000 1.000000 1.000000 1.000000
131 1 193.489167 127.950911 193.489167 127.950911 -0.000000 -0.000000 1.000000 1.000000 1.000000
132 1 29.592587 168.434623 29.592587 168.434623 0.000000 0.000000 1.000000 1.000000 1.000000
133 1 154.186144 81.716293 154.186144 81.716293 0.000000 -0.000000 1.000000 1.000000 1.000000
134 1 10.644145 192.788453 10.644145 192.788453 0.000000 -0.000000 1.000000 1.000000 1.000000
135 1 11.046064 198.308376 11.046064 198.308376 -0.000000 -0.000000 1.000000 1.000000 1.000000
136 1 24.801357 123.691302 24.801357 123.691302 0.000000 -0.000000 1.000000 1.000000 1.000000
137 1 126.813217 45.266354 126.813217 45.266354 0.000000 -0.000000 1.000000 1.000000 1.000000
138 1 18.094583 179.128558 18.094583 179.128558 -0.000000 0.000000 1.000000 1.000000 1.000000
139 1 170.604648 211.997825 170.604648 211.997825 0.000000 0.000000 1.000000 1.000000 1.000000
140 1 205.611293 64.694359 205.611293 64.694359 0.000000 0.000000 1.000000 1.000000 1.000000
141 1 108.608899 41.331916 108.608899 41.331916 0.000000 0.000000 1.000000 1.000000 1.000000
142 1 166.146688 132.280665 166.146688 132.280665 -0.000000 0.000000 1.000000 1.000000 1.000000
143 1 247.467434 23.280193 247.467434 23.280193 -0.000000 -0.000000 1.000000 1.000000 1.000000
144 1 16.094536 183.819127 16.094536 183.819127 0.000000 -0.000000 1.000000 1.000000 1.000000
145 1 96.210698 248.697666 96.210698 248.697666 -0.000000 0.000000 1.000000 1.000000 1.000000
146 1 166.671595 157.409561 166.671595 157.409561 -0.000000 -0.000000 1.000000 1.000000 1.000000
147 1 85.861881 60.261814 85.861881 60.261814 -0.000000 -0.000000 1.000000 1.000000 1.000000
148 1 160.492925 88.890401 160.492925 88.890401 -0.000000 0.000000 1.000000 1.000000 1.000000
149 1 66.939869 66.141156 66.939869 66.141156 0.000000 0.000000 1.000000 1.000000 1.000000
150 1 192.021810 162.108592 192.021810 162.108592 -0.000000 0.000000 1.000000 1.000000 1.000000
151 1 240.067604 228.386533 240.067604 228.386533 -0.000000 -0.000000 1.000000 1.000000 1.000000
152 1 196.218027 247.763162 196.218027 -7.585353 0.000000 -0.000000 1.000000 1.000000 1.000000
153 1 101.988693 221.443892 101.988693 221.443892 -0.000000 -0.000000 1.000000 1.000000 1.000000
154 1 144.340555 196.512512 144.340555 196.512512 -0.000000 0.000000 1.000000 1.000000 1.000000
155 1 37.106198 156.530744 37.106198 156.530744 -0.000000 -0.000000 1.000000 1.000000 1.000000
156 1 122.853221 155.321106 122.853221 155.321106 -0.000000 -0.000000 1.000000 1.000000 1.000000
157 1 3.126529 141.239641 258.475044 141.239641 0.000000 -0.000000 1.000000 1.000000 1.000000
158 1 1.450962 39.434491 256.799477 39.434491 -0.000000 -0.000000 1.000000 1.000000 1.000000
159 1 98.128423 216.646337 98.128423 216.646337 0.000000 0.000000 1.000000 1.000000 1.000000
160 1 74.072107 180.237981 74.072107 180.237981 -0.000000 -0.000000 1.000000 1.000000 1.000000
161 1 90.549432 207.934832 90.549432 207.934832 -0.000000 -0.000000 1.000000 1.000000 1.000000
162 1 37.051550 75.089885 37.051550 75.089885 -0.000000 -0.000000 1.000000 1.000000 1.000000
163 1 93.554410 138.327341 93.554410 138.327341 0.000000 0.000000 1.000000 1.000000 1.000000
164 1 210.264019 95.456924 210.264019 95.456924 -0.000000 -0.000000 1.000000 1.000000 1.000000
165 1 86.394938 201.571094 86.394938 201.571094 -0.000000 -0.000000 1.000000 1.000000 1.000000
166 1 33.855871 135.039327 33.855871 135.039327 -0.000000 0.000000 1.000000 1.000000 1.000000
167 1 244.287370 26.966234 244.287370 26.966234 0.000000 -0.000000 1.000000 1.000000 1.000000
168 1 65.516232 213.300223 65.516232 213.300223 -0.000000 0.000000 1.000000 1.000000 1.000000
169 1 157.244099 25.460976 157.244099 25.460976 -0.000000 0.000000 1.000000 1.000000 1.000000
170 1 138.585222 36.315606 138.585222 36.315606 0.000000 0.000000 1.000000 1.000000 1.000000
171 1 231.235978 175.285362 231.235978 175.285362 0.000000 -0.000000 1.000000 1.000000 1.000000
172 1 15.306420 234.234421 15.306420 234.234421 0.000000 -0.000000 1.000000 1.000000 1.000000
173 1 62.002633 82.248320 62.002633 82.248320 -0.000000 0.000000 1.000000 1.000000 1.000000
174 1 102.225849 32.323082 102.225849 32.323082 -0.000000 0.000000 1.000000 1.000000 1.000000
175 1 85.542914 166.783631 85.542914 166.783631 -0.000000 -0.000000 1.000000 1.000000 1.000000
176 1 60.037702 83.529497 60.037702 83.529497 0.000000 0.000000 1.000000 1.000000 1.000000
177 1 187.767123 245.604787 187.767123 245.604787 0.000000 0.000000 1.000000 1.000000 1.000000
178 1 237.904108 246.082848 -17.444407 246.082848 -0.000000 -0.000000 1.000000 1.000000 1.000000
179 1 32.746071 9.707865 32.746071 9.707865 0.000000 -0.000000 1.000000 1.000000 1.000000
180 1 130.078828 243.328458 130.078828 -12.020057 0.000000 -0.000000 1.000000 1.000000 1.000000
181 1 105.266932 240.533147 105.266932 -14.815368 0.000000 0.000000 1.000000 1.000000 1.000000
182 1 88.303052 172.461035 88.303052 172.461035 0.000000 0.000000 1.000000 1.000000 1.000000
183 1 99.073163 134.106332 99.073163 134.106332 -0.000000 0.000000 1.000000 1.000000 1.000000
184 1 25.316779 69.496836 25.316779 69.496836 -0.000000 0.000000 1.000000 1.000000 1.000000
185 1 15.961785 83.761738 15.961785 83.761738 -0.000000 -0.000000 1.000000 1.000000 1.000000
186 1 239.341140 164.631495 239.341140 164.631495 -0.000000 -0.000000 1.000000 1.000000 1.000000
187 1 41.122186 50.416374 41.122186 50.416374 -0.000000 0.000000 1.000000 1.000000 1.000000
188 1 236.751326 127.782477 236.751326 127.782477 -0.000000 0.000000 1.000000 1.000000 1.000000
189 1 154.222104 63.540877 154.222104 63.540877 -0.000000 0.000000 1.000000 1.000000 1.000000
190 1 227.091399 176.408616 227.091399 176.408616 -0.000000 -0.000000 1.000000 1.000000 1.000000
191 1 141.682115 210.550455 141.682115 210.550455 -0.000000 -0.000000 1.000000 1.000000 1.000000
192 1 207.135469 78.500962 207.135469 78.500962 0.000000 -0.000000 1.000000 1.000000 1.000000
193 1 63.936833 181.352640 63.936833 181.352640 -0.000000 0.000000 1.000000 1.000000 1.000000
194 1 169.756312 86.749491 169.756312 86.749491 -0.000000 -0.000000 1.000000 1.000000 1.000000
195 1 248.864159 20.266274 -6.484356 20.266274 0.000000 -0.000000 1.000000 1.000000 1.000000
196 1 108.804061 201.499166 108.804061 201.499166 0.000000 -0.000000 1.000000 1.000000 1.000000
197 1 7.169240 16.685542 7.169240 16.685542 -0.000000 0.000000 1.000000 1.000000 1.000000
198 1 4.236964 108.096653 259.585479 108.096653 0.000000 -0.000000 1.000000 1.000000 1.000000
199 1 78.152872 177.570018 78.152872 177.570018 0.000000 -0.000000 1.000000 1.000000 1.000000
200 1 159.650258 24.893627 159.650258 24.893627 0.000000 -0.000000 1.000000 1.000000 1.000000
201 1 197.907307 78.121626 197.907307 78.121626 -0.000000 0.000000 1.000000 1.000000 1.000000
202 1 142.717433 34.375474 142.717433 34.375474 0.000000 0.000000 1.000000 1.000000 1.000000
203 1 48.637667 91.367821 48.637667 91.367821 -0.000000 -0.000000 1.000000 1.000000 1.000000
204 1 205.941038 140.007537 205.941038 140.007537 0.000000 0.000000 1.000000 1.000000 1.000000
205 1 193.220918 217.196667 193.220918 217.196667 -0.000000 0.000000 1.000000 1.000000 1.000000
206 1 159.002625 152.633368 159.002625 152.633368 -0.000000 -0.000000 1.000000 1.000000 1.000000
207 1 214.803289 17.833487 214.803289 17.833487 -0.000000 0.000000 1.000000 1.000000 1.000000
208 1 101.378433 54.615842 101.378433 54.615842 -0.000000 0.000000 1.000000 1.000000 1.000000
209 1 43.450922 2.064089 43.450922 257.412604 -0.000000 0.000000 1.000000 1.000000 1.000000
210 1 210.065542 37.212529 210.065542 37.212529 -0.000000 0.000000 1.000000 1.000000 1.000000
211 1 121.525195 36.431888 121.525195 36.431888 -0.000000 0.000000 1.000000 1.000000 1.000000
212 1 206.742101 156.201945 206.742101 156.201945 0.000000 -0.000000 1.000000 1.000000 1.000000
213 1 13.177426 196.885009 13.177426 196.885009 0.000000 -0.000000 1.000000 1.000000 1.000000
214 1 13.974380 104.742694 13.974380 104.742694 0.000000 0.000000 1.000000 1.000000 1.000000
215 1 214.777875 103.850589 214.777875 103.850589 0.000000 -0.000000 1.000000 1.000000 1.000000
216 1 11.007290 29.829849 11.007290 29.829849 -0.000000 0.000000 1.000000 1.000000 1.000000
217 1 100.290723 158.924608 100.290723 158.924608 -0.000000 -0.000000 1.000000 1.000000 1.000000
218 1 6.695942 89.952504 262.044457 89.952504 0.000000 -0.000000 1.000000 1.000000 1.000000
219 1 165.103104 28.589460 165.103104 28.589460 -0.000000 0.000000 1.000000 1.000000 1.000000
220 1 61.039616 214.247931 61.039616 214.247931 0.000000 -0.000000 1.000000 1.000000 1.000000
221 1 36.052566 106.408175 36.052566 106.408175 -0.000000 0.000000 1.000000 1.000000 1.000000
222 1 70.960630 85.419024 70.960630 85.419024 0.000000 -0.000000 1.000000 1.000000 1.000000
223 1 54.105944 224.239847 54.105944 224.239847 -0.000000 -0.000000 1.000000 1.000000 1.000000
224 1 94.400307 26.805002 94.400307 26.805002 -0.000000 -0.000000 1.000000 1.000000 1.000000
225 1 169.566223 66.245655 169.566223 66.245655 0.000000 0.000000 1.000000 1.000000 1.000000
226 1 133.865352 81.102532 133.865352 81.102532 0.000000 -0.000000 1.000000 1.000000 1.000000
227 1 254.570653 252.977040 254.570653 252.977040 -0.000000 -0.000000 1.000000 1.000000 1.000000
228 1 63.322466 184.993151 63.322466 184.993151 -0.000000 -0.000000 1.000000 1.000000 1.000000
229 1 175.838179 79.620411 175.838179 79.620411 0.000000 0.000000 1.000000 1.000000 1.000000
230 1 165.859652 243.489382 165.859652 -11.859133 -0.000000 0.000000 1.000000 1.000000 1.000000
231 1 237.497185 124.288366 237.497185 124.288366 -0.000000 -0.000000 1.000000 1.000000 1.000000
232 1 134.100185 237.439770 134.100185 237.439770 -0.000000 -0.000000 1.000000 1.000000 1.000000
233 1 18.614690 183.084251 273.963205 183.084251 -0.000000 0.000000 1.000000 1.000000 1.000000
234 1 176.176613 123.024101 176.176613 123.024101 -0.000000 0.000000 1.000000 1.000000 1.000000
235 1 128.948057 141.268846 128.948057 141.268846 0.000000 -0.000000 1.000000 1.000000 1.000000
236 1 165.851250 65.268516 165.851250 65.268516 0.000000 0.000000 1.000000 1.000000 1.000000
237 1 105.829544 226.225185 105.829544 226.225185 0.000000 0.000000 1.000000 1.000000 1.000000
238 1 94.110821 180.863202 94.110821 180.863202 -0.000000 -0.000000 1.000000 1.000000 1.000000
239 1 46.214744 123.826607 46.214744 123.826607 -0.000000 -0.000000 1.000000 1.000000 1.000000
240 1 98.384682 126.009443 98.384682 126.009443 0.000000 0.000000 1.000000 1.000000 1.000000
241 1 67.337472 116.957274 67.337472 116.957274 0.000000 -0.000000 1.000000 1.000000 1.000000
242 1 15.144585 248.378440 15.144585 248.378440 0.000000 -0.000000 1.000000 1.000000 1.000000
243 1 213.387936 108.788205 213.387936 108.788205 -0.000000 0.000000 1.000000 1.000000 1.000000
244 1 118.085872 3.826674 118.085872 259.175189 0.000000 0.000000 1.000000 1.000000 1.000000
245 1 150.137807 195.520704 150.137807 195.520704 -0.000000 -0.000000 1.000000 1.000000 1.000000
246 1 11.653507 214.212482 11.653507 214.212482 0.000000 0.000000 1.000000 1.000000 1.000000
247 1 204.827347 215.496730 204.827347 215.496730 0.000000 0.000000 1.000000 1.000000 1.000000
248 1 58.334071 235.570452 58.334071 235.570452 -0.000000 0.000000 1.000000 1.000000 1.000000
249 1 231.505105 183.287908 231.505105 183.287908 0.000000 0.000000 1.000000 1.000000 1.000000
250 1 37.974241 243.045391 37.974241 243.045391 0.000000 -0.000000 1.000000 1.000000 1.000000
251 1 164.644444 237.691676 164.644444 237.691676 -0.000000 -0.000000 1.000000 1.000000 1.000000
252 1 214.144605 160.154303 214.144605 160.154303 0.000000 -0.000000 1.000000 1.000000 1.000000
253 1 146.396028 166.157660 146.396028 166.157660 0.000000 0.000000 1.000000 1.000000 1.000000
254 1 186.368867 77.315086 186.368867 77.315086 -0.000000 -0.000000 1.000000 1.000000 1.000000
255 1 46.321732 112.645364 46.321732 112.645364 0.000000 0.000000 1.000000 1.000000 1.000000
256 1 7.771566 221.198159 7.771566 221.198159 -0.000000 -0.000000 1.000000 1.000000 1.000000
257 1 64.366423 30.747456 64.366423 30.747456 -0.000000 -0.000000 1.000000 1.000000 1.000000
258 1 185.439205 46.962578 185.439205 46.962578 0.000000 -0.000000 1.000000 1.000000 1.000000
259 1 171.115575 105.116702 171.115575 105.116702 0.000000 -0.000000 1.000000 1.000000 1.000000
260 1 85.162502 13.075562 85.162502 13.075562 0.000000 0.000000 1.000000 1.000000 1.000000
261 1 181.682258 65.625896 181.682258 65.625896 -0.000000 0.000000 1.000000 1.000000 1.000000
262 1 82.363948 175.145690 82.363948 175.145690 0.000000 0.000000 1.000000 1.000000 1.000000
263 1 20.551021 106.283079 20.551021 106.283079 -0.000000 -0.000000 1.000000 1.000000 1.000000
264 1 253.239529 195.115191 -2.108986 195.115191 0.000000 0.000000 1.000000 1.000000 1.000000
265 1 146.742425 132.512840 146.742425 132.512840 -0.000000 0.000000 1.000000 1.000000 1.000000
266 1 25.061828 59.620224 25.061828 59.620224 -0.000000 0.000000 1.000000 1.000000 1.000000
267 1 138.452065 44.390354 138.452065 44.390354 0.000000 0.000000 1.000000 1.000000 1.000000
268 1 21.767070 72.785146 21.767070 72.785146 0.000000 0.000000 1.000000 1.000000 1.000000
269 1 106.174725 192.483612 106.174725 192.483612 0.000000 0.000000 1.000000 1.000000 1.000000
270 1 201.981700 108.485878 201.981700 108.485878 -0.000000 -0.000000 1.000000 1.000000 1.000000
271 1 137.770055 0.400182 137.770055 255.748697 -0.000000 0.000000 1.000000 1.000000 1.000000
272 1 149.295344 201.085126 149.295344 201.085126 -0.000000 -0.000000 1.000000 1.000000 1.000000
273 1 99.357602 138.029692 99.357602 138.029692 -0.000000 0.000000 1.000000 1.000000 1.000000
274 1 187.992463 220.647536 187.992463 220.647536 -0.000000 -0.000000 1.000000 1.000000 1.000000
275 1 35.201662 178.514305 35.201662 178.514305 -0.000000 0.000000 1.000000 1.000000 1.000000
276 1 171.792807 60.472364 171.792807 60.472364 0.000000 0.000000 1.000000 1.000000 1.000000
277 1 206.408474 176.147198 206.408474 176.147198 -0.000000 -0.000000 1.000000 1.000000 1.000000
278 1 28.444298 177.576953 28.444298 177.576953 0.000000 -0.000000 1.000000 1.000000 1.000000
279 1 57.277895 17.109303 57.277895 17.109303 -0.000000 0.000000 1.000000 1.000000 1.000000
280 1 224.932453 182.536098 224.932453 182.536098 -0.000000 0.000000 1.000000 1.000000 1.000000
281 1 11.981226 134.593024 11.981226 134.593024 -0.000000 -0.000000 1.000000 1.000000 1.000000
282 1 146.055334 115.138412 146.055334 115.138412 -0.000000 0.000000 1.000000 1.000000 1.000000
283 1 236.685262 52.342816 236.685262 52.342816 0.000000 -0.000000 1.000000 1.000000 1.000000
284 1 180.308085 191.293811 180.308085 191.293811 0.000000 0.000000 1.000000 1.000000 1.000000
285 1 132.169223 147.192907 132.169223 147.192907 -0.000000 -0.000000 1.000000 1.000000 1.000000
286 1 234.891400 26.354876 234.891400 281.703391 0.000000 0.000000 1.000000 1.000000 1.000000
287 1 234.098200 14.795259 234.098200 14.795259 -0.000000 -0.000000 1.000000 1.000000 1.000000
288 1 190.070124 73.765653 190.070124 73.765653 0.000000 0.000000 1.000000 1.000000 1.000000
289 1 33.596006 39.154324 33.596006 39.154324 -0.000000 0.000000 1.000000 1.000000 1.000000
290 1 224.037607 22.621470 224.037607 22.621470 -0.000000 -0.000000 1.000000 1.000000 1.000000
291 1 99.117619 149.237283 99.117619 149.237283 -0.000000 0.000000 1.000000 1.000000 1.000000
292 1 174.583037 234.032135 174.583037 234.032135 0.000000 -0.000000 1.000000 1.000000 1.000000
293 1 20.924892 117.700948 20.924892 117.700948 -0.000000 0.000000 1.000000 1.000000 1.000000
294 1 21.582162 139.275624 21.582162 139.275624 0.000000 0.000000 1.000000 1.000000 1.000000
295 1 241.300977 158.144112 241.300977 158.144112 0.000000 -0.000000 1.000000 1.000000 1.000000
296 1 253.222274 83.348971 253.222274 83.348971 -0.000000 0.000000 1.000000 1.000000 1.000000
297 1 221.956142 190.592892 221.956142 190.592892 -0.000000 -0.000000 1.000000 1.000000 1.000000
298 1 189.327394 30.696160 189.327394 30.696160 -0.000000 0.000000 1.000000 1.000000 1.000000
299 1 232.579105 158.231166 232.579105 158.231166 0.000000 0.000000 1.000000 1.000000 1.000000
300 1 215.448822 173.511201 215.448822 173.511201 -0.000000 0.000000 1.000000 1.000000 1.000000
301 1 69.908212 62.689800 69.908212 62.689800 0.000000 0.000000 1.000000 1.000000 1.000000
302 1 48.620285 104.237964 48.620285 104.237964 -0.000000 0.000000 1.000000 1.000000 1.000000
303 1 6.883134 96.020915 6.883134 96.020915 0.000000 0.000000 1.000000 1.000000 1.000000
304 1 110.105947 196.517412 110.105947 196.517412 -0.000000 -0.000000 1.000000 1.000000 1.000000
305 1 80.803036 102.997396 80.803036 102.997396 -0.000000 -0.000000 1.000000 1.000000 1.000000
306 1 6.078276 235.849545 6.078276 235.849545 -0.000000 -0.000000 1.000000 1.000000 1.000000
307 1 36.023745 82.890661 36.023745 82.890661 -0.000000 -0.000000 1.000000 1.000000 1.000000
308 1 119.411582 22.141596 119.411582 22.141596 0.000000 0.000000 1.000000 1.000000 1.000000
309 1 187.630811 192.874787 187.630811 192.874787 -0.000000 0.000000 1.000000 1.000000 1.000000
310 1 129.197252 145.872515 129.197252 145.872515 0.000000 -0.000000 1.000000 1.000000 1.000000
311 1 149.312759 8.494252 149.312759 8.494252 0.000000 -0.000000 1.000000 1.000000 1.000000
312 1 100.138265 127.918604 100.138265 127.918604 0.000000 -0.000000 1.000000 1.000000 1.000000
313 1 172.407231 17.309077 172.407231 17.309077 0.000000 0.000000 1.000000 1.000000 1.000000
314 1 36.961665 177.028844 36.961665 177.028844 -0.000000 0.000000 1.000000 1.000000 1.000000
315 1 210.624802 201.547074 210.624802 201.547074 -0.000000 -0.000000 1.000000 1.000000 1.000000
316 1 147.132566 241.461818 147.132566 241.461818 -0.000000 -0.000000 1.000000 1.000000 1.000000