ITEM: TIMESTEP
6600.000000
ITEM: NUMBER OF ATOMS
5000
ITEM: BOX BOUNDS xy xz yz
0 227.108739 0
0 227.108739 0
0 2 0
ITEM: ATOMS id type x y xu yu vx vy radius m z
0 1 106.286182 34.451666 106.286182 34.451666 -0.000000 -0.000000 1.000000 1.000000 1.000000
1 1 108.266026 68.934655 108.266026 68.934655 -0.000000 0.000000 1.000000 1.000000 1.000000
2 1 32.850614 28.028265 32.850614 28.028265 -0.000000 -0.000000 1.000000 1.000000 1.000000
3 1 132.102659 224.614613 132.102659 224.614613 -0.000000 -0.000000 1.000000 1.000000 1.000000
4 1 118.855223 115.232122 118.855223 115.232122 -0.000000 0.000000 1.000000 1.000000 1.000000
5 1 221.921545 5.941917 -5.187194 5.941917 -0.000000 0.000000 1.000000 1.000000 1.000000
6 1 37.821102 29.374355 37.821102 29.374355 -0.000000 0.000000 1.000000 1.000000 1.000000
7 1 214.932479 179.889693 -12.176260 179.889693 -0.000000 0.000000 1.000000 1.000000 1.000000
8 1 86.305956 60.805139 86.305956 60.805139 -0.000000 0.000000 1.000000 1.000000 1.000000
9 1 21.713705 32.691625 21.713705 32.691625 0.000000 -0.000000 1.000000 1.000000 1.000000
10 1 27.054127 106.655644 27.054127 106.655644 -0.000000 -0.000000 1.000000 1.000000 1.000000
11 1 152.052806 121.217413 152.052806 121.217413 0.000000 0.000000 1.000000 1.000000 1.000000
12 1 123.455677 109.365796 123.455677 109.365796 0.000000 -0.000000 1.000000 1.000000 1.000000
13 1 60.909864 166.822206 60.909864 166.822206 0.000000 0.000000 1.000000 1.000000 1.000000
14 1 183.013852 151.826079 183.013852 151.826079 -0.000000 0.000000 1.000000 1.000000 1.000000
15 1 42.604880 42.754499 42.604880 42.754499 0.000000 0.000000 1.000000 1.000000 1.000000
16 1 121.651771 179.365747 121.651771 179.365747 0.000000 -0.000000 1.000000 1.000000 1.000000
17 1 225.484821 129.602967 225.484821 129.602967 0.000000 -0.000000 1.000000 1.000000 1.000000
18 1 31.128185 139.475472 31.128185 139.475472 -0.000000 0.000000 1.000000 1.000000 1.000000
19 1 191.950148 165.501318 191.950148 165.501318 0.000000 -0.000000 1.000000 1.000000 1.000000
20 1 159.336995 180.389658 159.336995 180.389658 -0.000000 0.000000 1.000000 1.000000 1.000000
21 1 170.872385 133.783867 170.872385 133.783867 0.000000 0.000000 1.000000 1.000000 1.000000
22 1 188.142189 117.466066 188.142189 117.466066 -0.000000 -0.000000 1.000000 1.000000 1.000000
23 1 184.423925 7.877174 184.423925 234.985913 -0.000000 0.000000 1.000000 1.000000 1.000000
24 1 103.959725 101.072134 103.959725 101.072134 0.000000 0.000000 1.000000 1.000000 1.000000
25 1 70.413442 101.195302 70.413442 101.195302 -0.000000 -0.000000 1.000000 1.000000 1.000000
26 1 113.923350 145.293130 113.923350 145.293130 -0.000000 -0.000000 1.000000 1.000000 1.000000
27 1 36.226225 72.136156 36.226225 72.136156 0.000000 -0.000000 1.000000 1.000000 1.000000
28 1 91.594507 37.088850 91.594507 37.088850 -0.000000 0.000000 1.000000 1.000000 1.000000
29 1 20.139146 22.256697 20.139146 22.256697 0.000000 -0.000000 1.000000 1.000000 1.000000
30 1 63.913086 158.417592 63.913086 158.417592 0.000000 -0.000000 1.000000 1.000000 1.000000
31 1 139.693824 28.115469 139.693824 28.115469 -0.000000 -0.000000 1.000000 1.000000 1.000000
32 1 66.397307 51.887672 66.397307 51.887672 -0.000000 0.000000 1.000000 1.000000 1.000000
33 1 14.104403 177.569486 14.104403 177.569486 -0.000000 -0.000000 1.000000 1.000000 1.000000
34 1 219.183014 161.296827 219.183014 161.296827 0.000000 -0.000000 1.000000 1.000000 1.000000
35 1 158.250352 26.773506 158.250352 26.773506 0.000000 0.000000 1.000000 1.000000 1.000000
36 1 10.151246 53.866264 10.151246 53.866264 -0.000000 0.000000 1.000000 1.000000 1.000000
37 1 156.874548 207.340188 156.874548 207.340188 0.000000 -0.000000 1.000000 1.000000 1.000000
38 1 200.649192 61.250112 200.649192 61.250112 0.000000 -0.000000 1.000000 1.000000 1.000000
39 1 159.389467 155.313520 159.389467 155.313520 -0.000000 -0.000000 1.000000 1.000000 1.000000
40 1 77.905424 144.141481 77.905424 144.141481 0.000000 -0.000000 1.000000 1.000000 1.000000
41 1 197.961990 6.085145 197.961990 233.193884 -0.000000 -0.000000 1.000000 1.000000 1.000000
42 1 61.702674 63.830320 61.702674 63.830320 0.000000 0.000000 1.000000 1.000000 1.000000
43 1 144.138905 6.988710 144.138905 6.988710 0.000000 -0.000000 1.000000 1.000000 1.000000
44 1 92.540731 164.621286 92.540731 164.621286 0.000000 -0.000000 1.000000 1.000000 1.000000
45 1 5.144947 18.841803 5.144947 18.841803 0.000000 -0.000000 1.000000 1.000000 1.000000
46 1 116.421428 29.545510 116.421428 29.545510 -0.000000 0.000000 1.000000 1.000000 1.000000
47 1 10.318940 48.194792 10.318940 48.194792 -0.000000 -0.000000 1.000000 1.000000 1.000000
48 1 2.173632 70.990252 2.173632 70.990252 -0.000000 -0.000000 1.000000 1.000000 1.000000
49 1 8.400803 132.085554 235.509542 132.085554 0.000000 0.000000 1.000000 1.000000 1.000000
50 1 202.262996 41.386159 202.262996 41.386159 0.000000 0.000000 1.000000 1.000000 1.000000
51 1 173.006800 108.856902 173.006800 108.856902 -0.000000 0.000000 1.000000 1.000000 1.000000
52 1 93.231447 15.918798 93.231447 15.918798 -0.000000 -0.000000 1.000000 1.000000 1.000000
53 1 49.754000 219.276630 49.754000 -7.832109 0.000000 -0.000000 1.000000 1.000000 1.000000
54 1 186.108155 128.752100 186.108155 128.752100 0.000000 0.000000 1.000000 1.000000 1.000000
55 1 64.803311 193.261711 64.803311 193.261711 0.000000 0.000000 1.000000 1.000000 1.000000
56 1 42.480940 114.900217 42.480940 114.900217 0.000000 -0.000000 1.000000 1.000000 1.000000
57 1 111.701822 103.970920 111.701822 103.970920 -0.000000 0.000000 1.000000 1.000000 1.000000
58 1 39.066091 157.556676 39.066091 157.556676 -0.000000 -0.000000 1.000000 1.000000 1.000000
59 1 145.831943 154.873995 145.831943 154.873995 -0.000000 0.000000 1.000000 1.000000 1.000000
60 1 217.210695 54.842282 217.210695 54.842282 0.000000 -0.000000 1.000000 1.000000 1.000000
61 1 221.355702 173.666916 -5.753037 173.666916 0.000000 0.000000 1.000000 1.000000 1.000000
62 1 155.596873 111.485977 155.596873 111.485977 -0.000000 0.000000 1.000000 1.000000 1.000000
63 1 193.210831 78.095634 193.210831 78.095634 0.000000 0.000000 1.000000 1.000000 1.000000
64 1 196.847982 175.466235 196.847982 175.466235 0.000000 0.000000 1.000000 1.000000 1.000000
65 1 49.942025 17.911718 49.942025 17.911718 0.000000 0.000000 1.000000 1.000000 1.000000
66 1 159.258638 71.223169 159.258638 71.223169 0.000000 0.000000 1.000000 1.000000 1.000000
67 1 186.866904 166.370588 186.866904 166.370588 0.000000 -0.000000 1.000000 1.000000 1.000000
68 1 114.822033 152.454508 114.822033 152.454508 -0.000000 -0.000000 1.000000 1.000000 1.000000
69 1 29.608347 207.689799 29.608347 207.689799 -0.000000 -0.000000 1.000000 1.000000 1.000000
70 1 46.203018 75.786542 46.203018 75.786542 0.000000 0.000000 1.000000 1.000000 1.000000
71 1 84.026396 131.259347 84.026396 131.259347 -0.000000 0.000000 1.000000 1.000000 1.000000
72 1 156.261578 12.508798 156.261578 12.508798 -0.000000 0.000000 1.000000 1.000000 1.000000
73 1 111.998033 100.551548 111.998033 100.551548 -0.000000 -0.000000 1.000000 1.000000 1.000000
74 1 38.640288 159.917485 38.640288 159.917485 -0.000000 0.000000 1.000000 1.000000 1.000000
75 1 100.875154 165.762239 100.875154 165.762239 -0.000000 0.000000 1.000000 1.000000 1.000000
76 1 157.080631 93.796908 157.080631 93.796908 0.000000 0.000000 1.000000 1.000000 1.000000
77 1 76.374927 8.758443 76.374927 8.758443 -0.000000 0.000000 1.000000 1.000000 1.000000
78 1 23.297021 62.078924 23.297021 62.078924 0.000000 -0.000000 1.000000 1.000000 1.000000
79 1 130.924514 51.085500 130.924514 51.085500 -0.000001 -0.000001 1.000000 1.000000 1.000000
80 1 223.676029 188.549511 223.676029 188.549511 0.000000 0.000000 1.000000 1.000000 1.000000
81 1 190.433739 143.028334 190.433739 143.028334 0.000000 -0.000000 1.000000 1.000000 1.000000
82 1 78.246182 178.746326 78.246182 178.746326 0.000000 -0.000000 1.000000 1.000000 1.000000
83 1 189.618134 220.973608 189.618134 220.973608 0.000000 0.000000 1.000000 1.000000 1.000000
84 1 2.503803 211.318595 2.503803 211.318595 -0.000000 -0.000000 1.000000 1.000000 1.000000
85 1 133.616101 226.016136 133.616101 -1.092603 0.000000 -0.000000 1.000000 1.000000 1.000000
86 1 121.023858 69.364307 121.023858 69.364307 0.000000 0.000000 1.000000 1.000000 1.000000
87 1 116.955275 51.080322 116.955275 51.080322 0.000001 0.000002 1.000000 1.000000 1.000000
88 1 35.394977 45.843523 35.394977 45.843523 -0.000000 0.000000 1.000000 1.000000 1.000000
89 1 108.394020 144.183694 108.394020 144.183694 0.000000 -0.000000 1.000000 1.000000 1.000000
90 1 226.235441 9.316002 226.235441 9.316002 0.000000 -0.000000 1.000000 1.000000 1.000000
91 1 98.878032 111.128096 98.878032 111.128096 0.000000 -0.000000 1.000000 1.000000 1.000000
92 1 199.135106 105.910981 199.135106 105.910981 0.000000 0.000000 1.000000 1.000000 1.000000
93 1 92.525233 11.104356 92.525233 238.213095 -0.000000 -0.000000 1.000000 1.000000 1.000000
94 1 147.094940 217.007470 147.094940 -10.101269 -0.000000 -0.000000 1.000000 1.000000 1.000000
95 1 162.307199 43.046128 162.307199 43.046128 0.000000 -0.000000 1.000000 1.000000 1.000000
96 1 74.046098 30.491189 74.046098 30.491189 -0.000000 -0.000000 1.000000 1.000000 1.000000
97 1 60.180697 39.025674 60.180697 39.025674 -0.000000 -0.000000 1.000000 1.000000 1.000000
98 1 147.828895 196.532557 147.828895 196.532557 0.000000 -0.000000 1.000000 1.000000 1.000000
99 1 205.652810 18.333273 205.652810 18.333273 0.000000 -0.000000 1.000000 1.000000 1.000000
100 1 215.199926 3.101295 215.199926 230.210034 -0.000000 0.000000 1.000000 1.000000 1.000000
101 1 201.989485 47.476676 201.989485 47.476676 0.000000 0.000000 1.000000 1.000000 1.000000
102 1 12.735203 154.937238 12.735203 154.937238 0.000000 -0.000000 1.000000 1.000000 1.000000
103 1 23.880651 52.185644 23.880651 52.185644 -0.000000 0.000000 1.000000 1.000000 1.000000
104 1 206.859422 38.783311 206.859422 38.783311 -0.000000 0.000000 1.000000 1.000000 1.000000
105 1 71.013487 137.728801 71.013487 137.728801 -0.000000 -0.000000 1.000000 1.000000 1.000000
106 1 207.005335 12.718318 207.005335 12.718318 0.000000 -0.000000 1.000000 1.000000 1.000000
107 1 153.874530 144.691277 153.874530 144.691277 0.000000 0.000000 1.000000 1.000000 1.000000
108 1 165.386196 23.721176 165.386196 23.721176 0.000000 -0.000000 1.000000 1.000000 1.000000
109 1 138.602061 149.252896 138.602061 149.252896 0.000000 -0.000000 1.000000 1.000000 1.000000
110 1 129.929040 201.673316 129.929040 201.673316 -0.000000 0.000000 1.000000 1.000000 1.000000
111 1 150.253303 213.542591 150.253303 -13.566148 0.000000 -0.000000 1.000000 1.000000 1.000000
112 1 167.448991 130.348582 167.448991 130.348582 0.000000 -0.000000 1.000000 1.000000 1.000000
113 1 37.919869 193.387772 37.919869 193.387772 0.000000 0.000000 1.000000 1.000000 1.000000
114 1 149.362495 110.647459 149.362495 110.647459 0.000000 0.000000 1.000000 1.000000 1.000000
115 1 175.619871 61.513794 175.619871 61.513794 0.000000 -0.000000 1.000000 1.000000 1.000000
116 1 198.216178 177.183465 198.216178 177.183465 0.000000 -0.000000 1.000000 1.000000 1.000000
117 1 73.919577 74.326135 73.919577 74.326135 -0.000000 0.000000 1.000000 1.000000 1.000000
118 1 150.571078 127.620824 150.571078 127.620824 -0.000000 0.000000 1.000000 1.000000 1.000000
119 1 198.383065 63.996928 198.383065 63.996928 0.000000 0.000000 1.000000 1.000000 1.000000
120 1 117.125119 133.507207 117.125119 133.507207 0.000000 -0.000000 1.000000 1.000000 1.000000
121 1 22.419812 151.588351 22.419812 151.588351 0.000000 0.000000 1.000000 1.000000 1.000000
122 1 142.569138 192.352619 142.569138 192.352619 -0.000000 0.000000 1.000000 1.000000 1.000000
123 1 78.084968 121.767464 78.084968 121.767464 0.000000 0.000000 1.000000 1.000000 1.000000
124 1 181.467296 12.518274 181.467296 12.518274 0.000000 -0.000000 1.000000 1.000000 1.000000
125 1 199.858352 110.492429 199.858352 110.492429 -0.000000 -0.000000 1.000000 1.000000 1.000000
126 1 105.611976 7.617944 105.611976 234.726683 -0.000000 0.000000 1.000000 1.000000 1.000000
127 1 146.151412 91.072686 146.151412 91.072686 -0.000000 -0.000000 1.000000 1.000000 1.000000
128 1 112.177545 71.472064 112.177545 71.472064 -0.000000 -0.000000 1.000000 1.000000 1.000000
129 1 83.231307 121.074721 83.231307 121.074721 -0.000000 0.000000 1.000000 1.000000 1.000000
130 1 174.957466 4.401861 174.957466 4.401861 -0.000000 -0.000000 1.000000 1.000000 1.000000
131 1 73.020354 20.706362 73.020354 20.706362 0.000000 -0.000000 1.000000 1.000000 1.000000
132 1 8.308399 220.396878 8.308399 -6.711861 0.000000 -0.000000 1.000000 1.000000 1.000000
133 1 165.017262 160.210440 165.017262 160.210440 0.000000 0.000000 1.000000 1.000000 1.000000
134 1 108.847332 152.737591 108.847332 152.737591 0.000000 -0.000000 1.000000 1.000000 1.000000
135 1 133.981937 194.185490 133.981937 194.185490 0.000000 0.000000 1.000000 1.000000 1.000000
136 1 70.271173 3.010863 70.271173 230.119602 -0.000000 -0.000000 1.000000 1.000000 1.000000
137 1 29.959068 19.188418 29.959068 19.188418 0.000000 0.000000 1.000000 1.000000 1.000000
138 1 215.100194 175.336633 215.100194 175.336633 0.000000 -0.000000 1.000000 1.000000 1.000000
139 1 202.679960 63.147492 202.679960 63.147492 0.000000 0.000000 1.000000 1.000000 1.000000
140 1 132.168506 143.225196 132.168506 143.225196 -0.000000 0.000000 1.000000 1.000000 1.000000
141 1 75.515574 76.641871 75.515574 76.641871 0.000000 0.000000 1.000000 1.000000 1.000000
142 1 203.964842 171.075789 203.964842 171.075789 0.000000 -0.000000 1.000000 1.000000 1.000000
143 1 125.141408 166.012569 125.141408 166.012569 0.000000 0.000000 1.000000 1.000000 1.000000
144 1 179.963273 101.840233 179.963273 101.840233 -0.000000 -0.000000 1.000000 1.000000 1.000000
145 1 9.294858 183.307297 9.294858 183.307297 0.000000 -0.000000 1.000000 1.000000 1.000000
146 1 131.867474 75.030360 131.867474 75.030360 -0.000000 0.000000 1.000000 1.000000 1.000000
147 1 124.310163 201.573048 124.310163 201.573048 -0.000000 0.000000 1.000000 1.000000 1.000000
148 1 176.979244 14.736239 176.979244 14.736239 0.000000 -0.000000 1.000000 1.000000 1.000000
149 1 63.635146 129.202684 63.635146 129.202684 0.000000 0.000000 1.000000 1.000000 1.000000
150 1 109.266439 94.487386 109.266439 94.487386 -0.000000 0.000000 1.000000 1.000000 1.000000
151 1 113.168289 214.544722 113.168289 214.544722 -0.000000 -0.000000 1.000000 1.000000 1.000000
152 1 0.861382 168.048857 0.861382 168.048857 0.000000 0.000000 1.000000 1.000000 1.000000
153 1 207.890866 149.081844 207.890866 149.081844 0.000000 -0.000000 1.000000 1.000000 1.000000
154 1 66.234973 131.138291 66.234973 131.138291 0.000000 -0.000000 1.000000 1.000000 1.000000
155 1 168.442775 48.585678 168.442775 48.585678 0.000000 0.000000 1.000000 1.000000 1.000000
156 1 145.099355 54.638963 145.099355 54.638963 0.000002 -0.000001 1.000000 1.000000 1.000000
157 1 35.422089 152.905973 35.422089 152.905973 -0.000000 -0.000000 1.000000 1.000000 1.000000
158 1 184.152424 90.107422 184.152424 90.107422 -0.000000 -0.000000 1.000000 1.000000 1.000000
159 1 64.464404 216.708058 64.464404 -10.400681 0.000000 -0.000000 1.000000 1.000000 1.000000
160 1 166.961949 181.076546 166.961949 181.076546 -0.000000 0.000000 1.000000 1.000000 1.000000
161 1 225.721080 27.064443 225.721080 27.064443 0.000000 0.000000 1.000000 1.000000 1.000000
162 1 202.048489 136.245957 202.048489 136.245957 -0.000000 0.000000 1.000000 1.000000 1.000000
163 1 41.319874 84.579879 41.319874 84.579879 -0.000000 0.000000 1.000000 1.000000 1.000000
164 1 139.961715 121.821954 139.961715 121.821954 -0.000000 -0.000000 1.000000 1.000000 1.000000
165 1 20.096572 46.077281 20.096572 46.077281 0.000000 0.000000 1.000000 1.000000 1.000000
166 1 48.400995 181.715466 48.400995 181.715466 -0.000000 0.000000 1.000000 1.000000 1.000000
167 1 120.744875 211.296300 120.744875 211.296300 -0.000000 -0.000000 1.000000 1.000000 1.000000
168 1 96.313677 79.783926 96.313677 79.783926 -0.000000 0.000000 1.000000 1.000000 1.000000
169 1 119.105228 142.835525 119.105228 142.835525 0.000000 -0.000000 1.000000 1.000000 1.000000
170 1 179.817732 219.497901 179.817732 219.497901 -0.000000 0.000000 1.000000 1.000000 1.000000
171 1 41.741669 65.904859 41.741669 65.904859 0.000000 0.000000 1.000000 1.000000 1.000000
172 1 167.709591 225.135339 167.709591 225.135339 0.000000 0.000000 1.000000 1.000000 1.000000
173 1 117.976122 140.187250 117.976122 140.187250 -0.000000 -0.000000 1.000000 1.000000 1.000000
174 1 14.585616 143.610509 14.585616 143.610509 0.000000 -0.000000 1.000000 1.000000 1.000000
175 1 88.678562 74.842976 88.678562 74.842976 0.000000 0.000000 1.000000 1.000000 1.000000
176 1 23.151924 85.738972 23.151924 85.738972 -0.000000 0.000000 1.000000 1.000000 1.000000
177 1 6.300490 195.971557 233.409229 195.971557 0.000000 -0.000000 1.000000 1.000000 1.000000
178 1 43.097161 170.199334 43.097161 170.199334 -0.000000 0.000000 1.000000 1.000000 1.000000
179 1 130.575878 96.136945 130.575878 96.136945 -0.000000 -0.000000 1.000000 1.000000 1.000000
180 1 74.806779 221.788248 74.806779 221.788248 -0.000000 -0.000000 1.000000 1.000000 1.000000
181 1 24.594191 198.169698 24.594191 198.169698 -0.000000 0.000000 1.000000 1.000000 1.000000
182 1 138.724143 49.919647 138.724143 49.919647 0.000000 0.000000 1.000000 1.000000 1.000000
183 1 176.874462 96.341267 176.874462 96.341267 -0.000000 0.000000 1.000000 1.000000 1.000000
184 1 205.325654 144.832683 205.325654 144.832683 -0.000000 0.000000 1.000000 1.000000 1.000000
185 1 80.817482 104.627010 80.817482 104.627010 0.000000 -0.000000 1.000000 1.000000 1.000000
186 1 117.424844 136.660806 117.424844 136.660806 -0.000000 0.000000 1.000000 1.000000 1.000000
187 1 113.832116 68.324547 113.832116 68.324547 -0.000000 0.000000 1.000000 1.000000 1.000000
188 1 60.526147 83.841235 60.526147 83.841235 0.000000 -0.000000 1.000000 1.000000 1.000000
189 1 71.653276 151.098881 71.653276 151.098881 -0.000000 -0.000000 1.000000 1.000000 1.000000
190 1 63.840363 38.825222 63.840363 38.825222 0.000000 -0.000000 1.000000 1.000000 1.000000
191 1 112.519984 126.058695 112.519984 126.058695 -0.000000 0.000000 1.000000 1.000000 1.000000
192 1 127.854705 69.533045 127.854705 69.533045 0.000000 0.000000 1.000000 1.000000 1.000000
193 1 105.237469 120.570042 105.237469 120.570042 -0.000000 0.000000 1.000000 1.000000 1.000000
194 1 9.178371 63.965782 9.178371 63.965782 -0.000000 -0.000000 1.000000 1.000000 1.000000
195 1 84.946734 110.939361 84.946734 110.939361 0.000000 0.000000 1.000000 1.000000 1.000000
196 1 134.771903 130.454570 134.771903 130.454570 -0.000000 -0.000000 1.000000 1.000000 1.000000
197 1 153.350910 162.773871 153.350910 162.773871 0.000000 0.000000 1.000000 1.000000 1.000000
198 1 169.556869 224.161665 169.556869 224.161665 0.000000 -0.000000 1.000000 1.000000 1.000000
199 1 198.688234 204.653497 198.688234 204.653497 -0.000000 0.000000 1.000000 1.000000 1.000000
200 1 215.661361 81.712751 215.661361 81.712751 -0.000000 0.000000 1.000000 1.000000 1.000000
201 1 209.515448 62.541803 209.515448 62.541803 -0.000000 0.000000 1.000000 1.000000 1.000000
202 1 161.742268 52.788315 161.742268 52.788315 0.000000 0.000000 1.000000 1.000000 1.000000
203 1 79.829945 95.508271 79.829945 95.508271 -0.000000 0.000000 1.000000 1.000000 1.000000
204 1 124.941705 108.010628 124.941705 108.010628 -0.000000 -0.000000 1.000000 1.000000 1.000000
205 1 95.947265 127.750479 95.947265 127.750479 -0.000000 -0.000000 1.000000 1.000000 1.000000
206 1 191.095594 193.182914 191.095594 193.182914 0.000000 -0.000000 1.000000 1.000000 1.000000
207 1 72.734607 85.929162 72.734607 85.929162 0.000000 0.000000 1.000000 1.000000 1.000000
208 1 140.756291 116.738478 140.756291 116.738478 -0.000000 -0.000000 1.000000 1.000000 1.000000
209 1 132.130940 30.747403 132.130940 30.747403 0.000000 -0.000000 1.000000 1.000000 1.000000
210 1 77.972005 116.310537 77.972005 116.310537 0.000000 0.000000 1.000000 1.000000 1.000000
211 1 40.600690 218.526891 40.600690 218.526891 -0.000000 -0.000000 1.000000 1.000000 1.000000
212 1 137.090093 20.143166 137.090093 20.143166 0.000000 0.000000 1.000000 1.000000 1.000000
213 1 19.569726 35.897897 19.569726 35.897897 0.000000 0.000000 1.000000 1.000000 1.000000
214 1 116.662133 181.199528 116.662133 181.199528 -0.000000 0.000000 1.000000 1.000000 1.000000
215 1 132.485122 0.589294 132.485122 0.589294 -0.000000 -0.000000 1.000000 1.000000 1.000000
216 1 118.501796 177.782901 118.501796 177.782901 -0.000000 -0.000000 1.000000 1.000000 1.000000
217 1 220.691985 123.291983 220.691985 123.291983 0.000000 0.000000 1.000000 1.000000 1.000000
218 1 162.503173 107.443234 162.503173 107.443234 -0.000000 -0.000000 1.000000 1.000000 1.000000
219 1 201.491856 209.208985 201.491856 209.208985 -0.000000 0.000000 1.000000 1.000000 1.000000
220 1 121.182966 38.707346 121.182966 38.707346 -0.000001 -0.000001 1.000000 1.000000 1.000000
221 1 189.438268 48.523972 189.438268 48.523972 -0.000000 -0.000000 1.000000 1.000000 1.000000
222 1 226.209555 206.478449 -0.899184 206.478449 0.000000 -0.000000 1.000000 1.000000 1.000000
223 1 222.454681 58.026151 222.454681 58.026151 -0.000000 -0.000000 1.000000 1.000000 1.000000
224 1 8.170373 189.862004 8.170373 189.862004 0.000000 -0.000000 1.000000 1.000000 1.000000
225 1 69.650675 168.307553 69.650675 168.307553 0.000000 -0.000000 1.000000 1.000000 1.000000
226 1 143.286103 161.606647 143.286103 161.606647 -0.000000 0.000000 1.000000 1.000000 1.000000
227 1 92.354263 80.918123 92.354263 80.918123 0.000000 0.000000 1.000000 1.000000 1.000000
228 1 15.352052 219.954701 15.352052 219.954701 0.000000 -0.000000 1.000000 1.000000 1.000000
229 1 145.817015 28.252246 145.817015 28.252246 -0.000000 -0.000000 1.000000 1.000000 1.000000
230 1 117.108010 107.256975 117.108010 107.256975 -0.000000 0.000000 1.000000 1.000000 1.000000
231 1 65.399058 214.830315 65.399058 -12.278424 0.000000 -0.000000 1.000000 1.000000 1.000000
232 1 165.524787 92.548652 165.524787 92.548652 0.000000 0.000000 1.000000 1.000000 1.000000
233 1 22.951009 50.157003 22.951009 50.157003 -0.000000 0.000000 1.000000 1.000000 1.000000
234 1 218.657926 60.247696 218.657926 60.247696 -0.000000 -0.000000 1.000000 1.000000 1.000000
235 1 175.472689 177.661895 175.472689 177.661895 -0.000000 0.000000 1.000000 1.000000 1.000000
236 1 208.324797 4.540505 208.324797 4.540505 0.000000 0.000000 1.000000 1.000000 1.000000
237 1 146.051738 192.017742 146.051738 192.017742 -0.000000 0.000000 1.000000 1.000000 1.000000
238 1 15.095866 152.523630 15.095866 152.523630 -0.000000 -0.000000 1.000000 1.000000 1.000000
239 1 138.862736 89.816183 138.862736 89.816183 0.000000 0.000000 1.000000 1.000000 1.000000
240 1 11.098100 45.113609 238.206839 45.113609 -0.000000 -0.000000 1.000000 1.000000 1.000000
241 1 19.672489 182.964844 19.672489 182.964844 -0.000000 0.000000 1.000000 1.000000 1.000000
242 1 182.220941 102.050839 182.220941 102.050839 0.000000 0.000000 1.000000 1.000000 1.000000
243 1 150.197748 182.978681 150.197748 182.978681 -0.000000 0.000000 1.000000 1.000000 1.000000
244 1 39.915763 120.301750 39.915763 120.301750 -0.000000 0.000000 1.000000 1.000000 1.000000
245 1 136.956394 60.378691 136.956394 60.378691 -0.000000 -0.000000 1.000000 1.000000 1.000000
246 1 201.185198 207.017702 201.185198 207.017702 -0.000000 0.000000 1.000000 1.000000 1.000000
247 1 179.786637 166.816698 179.786637 166.816698 0.000000 -0.000000 1.000000 1.000000 1.000000
248 1 25.247680 181.470872 25.247680 181.470872 -0.000000 -0.000000 1.000000 1.000000 1.000000
249 1 141.994488 219.236275 141.994488 219.236275 0.000000 0.000000 1.000000 1.000000 1.000000
250 1 101.449979 159.845054 101.449979 159.845054 -0.000000 -0.000000 1.000000 1.000000 1.000000
251 1 21.003275 153.276262 21.003275 153.276262 0.000000 0.000000 1.000000 1.000000 1.000000
252 1 189.707913 52.334488 189.707913 52.334488 0.000000 -0.000000 1.000000 1.000000 1.000000
253 1 87.704469 1.967873 87.704469 1.967873 -0.000000 0.000000 1.000000 1.000000 1.000000
254 1 18.323595 220.023820 18.323595 220.023820 0.000000 -0.000000 1.000000 1.000000 1.000000
255 1 123.506458 184.982853 123.506458 184.982853 0.000000 0.000000 1.000000 1.000000 1.000000
256 1 28.957916 166.280699 28.957916 166.280699 0.000000 -0.000000 1.000000 1.000000 1.000000
257 1 86.190926 23.006227 86.190926 23.006227 0.000000 -0.000000 1.000000 1.000000 1.000000
258 1 83.111102 139.818615 83.111102 139.818615 -0.000000 -0.000000 1.000000 1.000000 1.000000
259 1 54.436891 143.540577 54.436891 143.540577 -0.000000 -0.000000 1.000000 1.000000 1.000000
260 1 98.866548 37.228239 98.866548 37.228239 -0.000000 0.000000 1.000000 1.000000 1.000000
261 1 72.811945 33.210608 72.811945 33.210608 -0.000000 -0.000000 1.000000 1.000000 1.000000
262 1 11.039550 58.511371 11.039550 58.511371 0.000000 -0.000000 1.000000 1.000000 1.000000
263 1 116.410216 37.395466 116.410216 37.395466 -0.000001 -0.000002 1.000000 1.000000 1.000000
264 1 216.373139 121.654693 216.373139 121.654693 0.000000 -0.000000 1.000000 1.000000 1.000000
265 1 79.757251 90.466027 79.757251 90.466027 0.000000 0.000000 1.000000 1.000000 1.000000
266 1 64.721093 32.522785 64.721093 32.522785 -0.000000 0.000000 1.000000 1.000000 1.000000
267 1 105.757475 192.011193 105.757475 192.011193 0.000000 0.000000 1.000000 1.000000 1.000000
268 1 151.057569 66.129787 151.057569 66.129787 -0.000000 0.000000 1.000000 1.000000 1.000000
269 1 206.288579 129.063665 206.288579 129.063665 -0.000000 -0.000000 1.000000 1.000000 1.000000
270 1 4.850353 208.849994 4.850353 208.849994 -0.000000 -0.000000 1.000000 1.000000 1.000000
271 1 196.014459 25.644563 196.014459 25.644563 -0.000000 -0.000000 1.000000 1.000000 1.000000
272 1 81.329694 172.634186 81.329694 172.634186 0.000000 0.000000 1.000000 1.000000 1.000000
273 1 100.850793 107.275206 100.850793 107.275206 -0.000000 -0.000000 1.000000 1.000000 1.000000
274 1 176.302327 44.882617 176.302327 44.882617 -0.000000 0.000000 1.000000 1.000000 1.000000
275 1 11.941902 11.736952 11.941902 11.736952 -0.000000 0.000000 1.000000 1.000000 1.000000
276 1 139.068122 66.323196 139.068122 66.323196 -0.000000 0.000000 1.000000 1.000000 1.000000
277 1 122.392548 96.378203 122.392548 96.378203 0.000000 0.000000 1.000000 1.000000 1.000000
278 1 15.423280 169.317334 15.423280 169.317334 -0.000000 -0.000000 1.000000 1.000000 1.000000
279 1 217.082411 149.794830 -10.026328 149.794830 -0.000000 -0.000000 1.000000 1.000000 1.000000
280 1 22.716073 173.924848 22.716073 173.924848 0.000000 0.000000 1.000000 1.000000 1.000000
281 1 6.495148 105.508344 6.495148 105.508344 -0.000000 -0.000000 1.000000 1.000000 1.000000
282 1 43.837123 73.326381 43.837123 73.326381 -0.000000 0.000000 1.000000 1.000000 1.000000
283 1 114.394178 174.286583 114.394178 174.286583 0.000000 0.000000 1.000000 1.000000 1.000000
284 1 119.691388 224.089723 119.691388 224.089723 0.000000 0.000000 1.000000 1.000000 1.000000
285 1 174.159851 98.675529 174.159851 98.675529 -0.000000 0.000000 1.000000 1.000000 1.000000
286 1 86.504144 28.851424 86.504144 28.851424 0.000000 -0.000000 1.000000 1.000000 1.000000
287 1 146.152406 179.741050 146.152406 179.741050 0.000000 0.000000 1.000000 1.000000 1.000000
288 1 19.676721 94.971523 19.676721 94.971523 0.000000 0.000000 1.000000 1.000000 1.000000
289 1 83.656086 76.562912 83.656086 76.562912 0.000000 -0.000000 1.000000 1.000000 1.000000
290 1 122.495767 163.593611 122.495767 163.593611 0.000000 0.000000 1.000000 1.000000 1.000000
291 1 46.961974 33.781636 46.961974 33.781636 0.000000 0.000000 1.000000 1.000000 1.000000
292 1 205.533878 7.230819 205.533878 7.230819 -0.000000 0.000000 1.000000 1.000000 1.000000
293 1 136.261047 98.944583 136.261047 98.944583 -0.000000 -0.000000 1.000000 1.000000 1.000000
294 1 115.050500 39.079276 115.050500 39.079276 0.000000 -0.000000 1.000000 1.000000 1.000000
295 1 62.618710 123.714713 62.618710 123.714713 -0.000000 0.000000 1.000000 1.000000 1.000000
296 1 153.412783 221.434673 153.412783 -5.674066 -0.000000 -0.000000 1.000000 1.000000 1.000000
297 1 145.624314 74.123281 145.624314 74.123281 0.000000 -0.000000 1.000000 1.000000 1.000000
298 1 171.831351 155.928910 171.831351 155.928910 -0.000000 -0.000000 1.000000 1.000000 1.000000
299 1 158.163038 152.839390 158.163038 152.839390 0.000000 0.000000 1.000000 1.000000 1.000000
300 1 131.264422 93.917854 131.264422 93.917854 -0.000000 -0.000000 1.000000 1.000000 1.000000
301 1 86.149459 182.648313 86.149459 182.648313 -0.000000 -0.000000 1.000000 1.000000 1.000000
302 1 24.787540 223.903554 24.787540 223.903554 -0.000000 -0.000000 1.000000 1.000000 1.000000
303 1 107.586475 111.652857 107.586475 111.652857 0.000000 0.000000 1.000000 1.000000 1.000000
304 1 44.902561 172.040063 44.902561 172.040063 -0.000000 -0.000000 1.000000 1.000000 1.000000
305 1 27.281525 220.709442 27.281525 220.709442 -0.000000 0.000000 1.000000 1.000000 1.000000
306 1 196.480909 205.596025 196.480909 205.596025 -0.000000 0.000000 1.000000 1.000000 1.000000
307 1 48.299655 136.331509 48.299655 136.331509 -0.000000 0.000000 1.000000 1.000000 1.000000
308 1 11.237432 132.101521 11.237432 132.101521 -0.000000 -0.000000 1.000000 1.000000 1.000000
309 1 87.972170 172.978457 87.972170 172.978457 -0.000000 0.000000 1.000000 1.000000 1.000000
310 1 21.012210 115.314398 21.012210 115.314398 0.000000 0.000000 1.000000 1.000000 1.000000
311 1 104.505812 225.097560 104.505812 -2.011179 0.000000 0.000000 1.000000 1.000000 1.000000
312 1 39.145199 105.042617 39.145199 105.042617 -0.000000 0.000000 1.000000 1.000000 1.000000
313 1 53.600495 11.843092 53.600495 11.843092 -0.000000 0.000000 1.000000 1.000000 1.000000
314 1 164.442911 50.913724 164.442911 50.913724 -0.000000 -0.000000 1.000000 1.000000 1.000000
315 1 128.400134 144.062660 128.400134 144.062660 -0.000000 0.000000 1.000000 1.000000 1.000000
316 1 135.649229 125.066314 135.649229 125.066314 -0.000000 -0.000000 1.000000 1.000000 1.000000