ITEM: TIMESTEP
2300.000000
ITEM: NUMBER OF ATOMS
5000
ITEM: BOX BOUNDS xy xz yz
0 232.978182 0
0 232.978182 0
0 2 0
ITEM: ATOMS id type x y xu yu vx vy radius m z
0 1 47.786088 136.418138 47.786088 136.418138 -0.000000 -0.000000 1.000000 1.000000 1.000000
1 1 24.247385 106.599090 24.247385 106.599090 -0.000000 -0.000000 1.000000 1.000000 1.000000
2 1 97.319543 123.828906 97.319543 123.828906 -0.000000 -0.000000 1.000000 1.000000 1.000000
3 1 101.451381 38.206488 101.451381 38.206488 0.000000 0.000000 1.000000 1.000000 1.000000
4 1 65.687456 189.488813 65.687456 189.488813 0.000000 0.000000 1.000000 1.000000 1.000000
5 1 13.094317 184.179935 246.072499 184.179935 -0.000000 -0.000000 1.000000 1.000000 1.000000
6 1 89.402214 28.193653 89.402214 28.193653 0.000000 0.000000 1.000000 1.000000 1.000000
7 1 146.013725 50.776429 146.013725 50.776429 -0.000000 0.000000 1.000000 1.000000 1.000000
8 1 16.748898 160.272579 16.748898 160.272579 0.000000 -0.000000 1.000000 1.000000 1.000000
9 1 152.260514 163.857995 152.260514 163.857995 -0.000000 0.000000 1.000000 1.000000 1.000000
10 1 190.829322 66.871122 190.829322 66.871122 0.000000 -0.000000 1.000000 1.000000 1.000000
11 1 12.726363 195.952068 12.726363 195.952068 -0.000000 0.000000 1.000000 1.000000 1.000000
12 1 31.724300 215.737235 31.724300 215.737235 -0.000000 0.000000 1.000000 1.000000 1.000000
13 1 87.379598 165.764539 87.379598 165.764539 -0.000000 0.000000 1.000000 1.000000 1.000000
14 1 68.163050 26.976309 68.163050 26.976309 0.000000 0.000000 1.000000 1.000000 1.000000
15 1 157.943073 133.625257 157.943073 133.625257 -0.000000 0.000000 1.000000 1.000000 1.000000
16 1 129.524560 221.696844 129.524560 221.696844 -0.000000 -0.000000 1.000000 1.000000 1.000000
17 1 110.816175 207.630113 110.816175 207.630113 0.000000 0.000000 1.000000 1.000000 1.000000
18 1 128.003803 134.307160 128.003803 134.307160 -0.000000 -0.000000 1.000000 1.000000 1.000000
19 1 95.244085 28.349583 95.244085 28.349583 0.000000 0.000000 1.000000 1.000000 1.000000
20 1 151.264096 167.935750 151.264096 167.935750 0.000000 -0.000000 1.000000 1.000000 1.000000
21 1 173.313712 123.558973 173.313712 123.558973 0.000000 0.000000 1.000000 1.000000 1.000000
22 1 156.023448 200.981232 156.023448 200.981232 0.000000 0.000000 1.000000 1.000000 1.000000
23 1 159.135223 140.905723 159.135223 140.905723 -0.000000 0.000000 1.000000 1.000000 1.000000
24 1 83.421704 215.122340 83.421704 215.122340 0.000000 0.000000 1.000000 1.000000 1.000000
25 1 223.017045 162.445383 -9.961137 162.445383 -0.000000 -0.000000 1.000000 1.000000 1.000000
26 1 58.000111 40.975800 58.000111 40.975800 -0.000000 0.000000 1.000000 1.000000 1.000000
27 1 181.141990 214.917628 181.141990 214.917628 0.000000 0.000000 1.000000 1.000000 1.000000
28 1 190.438246 3.922807 190.438246 236.900989 0.000000 0.000000 1.000000 1.000000 1.000000
29 1 155.315309 204.656626 155.315309 204.656626 0.000000 0.000000 1.000000 1.000000 1.000000
30 1 124.523219 6.777127 124.523219 6.777127 0.000000 0.000000 1.000000 1.000000 1.000000
31 1 166.149460 99.169517 166.149460 99.169517 0.000000 0.000000 1.000000 1.000000 1.000000
32 1 185.665533 201.746919 185.665533 201.746919 0.000000 -0.000000 1.000000 1.000000 1.000000
33 1 88.099973 168.205148 88.099973 168.205148 0.000000 0.000000 1.000000 1.000000 1.000000
34 1 65.182681 9.565272 65.182681 9.565272 -0.000000 -0.000000 1.000000 1.000000 1.000000
35 1 9.529291 7.644743 9.529291 7.644743 -0.000000 0.000000 1.000000 1.000000 1.000000
36 1 169.100041 98.775344 169.100041 98.775344 0.000000 -0.000000 1.000000 1.000000 1.000000
37 1 60.624709 56.718540 60.624709 56.718540 0.000000 0.000000 1.000000 1.000000 1.000000
38 1 227.843990 134.526181 -5.134192 134.526181 0.000000 -0.000000 1.000000 1.000000 1.000000
39 1 13.626322 163.489321 13.626322 163.489321 -0.000000 0.000000 1.000000 1.000000 1.000000
40 1 41.177462 175.599266 41.177462 175.599266 -0.000000 -0.000000 1.000000 1.000000 1.000000
41 1 16.317947 229.172931 16.317947 229.172931 -0.000000 -0.000000 1.000000 1.000000 1.000000
42 1 59.196850 119.336374 59.196850 119.336374 -0.000000 0.000000 1.000000 1.000000 1.000000
43 1 134.519920 165.288852 134.519920 165.288852 0.000000 0.000000 1.000000 1.000000 1.000000
44 1 205.495479 1.353907 205.495479 234.332089 -0.000000 -0.000000 1.000000 1.000000 1.000000
45 1 94.989893 13.668880 94.989893 13.668880 -0.000000 -0.000000 1.000000 1.000000 1.000000
46 1 34.883283 46.925857 34.883283 46.925857 0.000000 -0.000000 1.000000 1.000000 1.000000
47 1 11.724252 179.409422 11.724252 179.409422 -0.000000 -0.000000 1.000000 1.000000 1.000000
48 1 60.549102 142.690692 60.549102 142.690692 -0.000000 -0.000000 1.000000 1.000000 1.000000
49 1 214.208736 68.105041 -18.769446 68.105041 -0.000000 0.000000 1.000000 1.000000 1.000000
50 1 42.236973 181.847723 42.236973 181.847723 0.000000 0.000000 1.000000 1.000000 1.000000
51 1 76.771396 183.994276 76.771396 183.994276 -0.000000 -0.000000 1.000000 1.000000 1.000000
52 1 176.568364 130.840898 176.568364 130.840898 -0.000000 -0.000000 1.000000 1.000000 1.000000
53 1 91.716423 49.655790 91.716423 49.655790 0.000000 0.000000 1.000000 1.000000 1.000000
54 1 193.494463 155.259953 193.494463 155.259953 0.000000 -0.000000 1.000000 1.000000 1.000000
55 1 207.909480 52.424498 207.909480 52.424498 0.000000 -0.000000 1.000000 1.000000 1.000000
56 1 206.821661 24.262999 206.821661 24.262999 -0.000000 0.000000 1.000000 1.000000 1.000000
57 1 201.016236 130.762929 201.016236 130.762929 0.000000 -0.000000 1.000000 1.000000 1.000000
58 1 2.615347 6.082742 235.593529 6.082742 -0.000000 0.000000 1.000000 1.000000 1.000000
59 1 155.850659 214.925349 155.850659 214.925349 -0.000000 0.000000 1.000000 1.000000 1.000000
60 1 86.078653 22.577132 86.078653 22.577132 -0.000000 0.000000 1.000000 1.000000 1.000000
61 1 199.142405 62.841168 199.142405 62.841168 -0.000000 0.000000 1.000000 1.000000 1.000000
62 1 87.603423 170.888585 87.603423 170.888585 -0.000000 -0.000000 1.000000 1.000000 1.000000
63 1 5.618771 91.437365 5.618771 91.437365 -0.000000 -0.000000 1.000000 1.000000 1.000000
64 1 0.315281 113.926247 233.293463 113.926247 -0.000000 -0.000000 1.000000 1.000000 1.000000
65 1 172.354119 165.910129 172.354119 165.910129 -0.000000 -0.000000 1.000000 1.000000 1.000000
66 1 73.503962 78.936373 73.503962 78.936373 0.000000 0.000000 1.000000 1.000000 1.000000
67 1 164.767070 226.198715 164.767070 -6.779467 -0.000000 -0.000000 1.000000 1.000000 1.000000
68 1 43.006238 185.337562 43.006238 185.337562 -0.000000 -0.000000 1.000000 1.000000 1.000000
69 1 117.809330 171.862393 117.809330 171.862393 0.000000 0.000000 1.000000 1.000000 1.000000
70 1 178.152056 226.862110 178.152056 -6.116072 0.000000 -0.000000 1.000000 1.000000 1.000000
71 1 111.418241 84.668407 111.418241 84.668407 -0.000000 -0.000000 1.000000 1.000000 1.000000
72 1 195.203060 62.449265 195.203060 62.449265 -0.000000 -0.000000 1.000000 1.000000 1.000000
73 1 152.236170 70.695819 152.236170 70.695819 0.000000 0.000000 1.000000 1.000000 1.000000
74 1 156.123946 5.162031 156.123946 5.162031 0.000000 -0.000000 1.000000 1.000000 1.000000
75 1 85.181601 150.138060 85.181601 150.138060 0.000000 -0.000000 1.000000 1.000000 1.000000
76 1 66.083438 139.870452 66.083438 139.870452 -0.000000 0.000000 1.000000 1.000000 1.000000
77 1 30.027564 160.356073 30.027564 160.356073 -0.000000 0.000000 1.000000 1.000000 1.000000
78 1 112.680412 164.336283 112.680412 164.336283 -0.000000 -0.000000 1.000000 1.000000 1.000000
79 1 78.388848 203.523072 78.388848 203.523072 -0.000000 0.000000 1.000000 1.000000 1.000000
80 1 50.619340 71.415854 50.619340 71.415854 0.000000 0.000000 1.000000 1.000000 1.000000
81 1 148.177496 151.373915 148.177496 151.373915 0.000000 0.000000 1.000000 1.000000 1.000000
82 1 120.635518 215.227143 120.635518 215.227143 -0.000000 0.000000 1.000000 1.000000 1.000000
83 1 151.216011 190.760929 151.216011 190.760929 0.000000 0.000000 1.000000 1.000000 1.000000
84 1 132.380630 124.141712 132.380630 124.141712 -0.000000 0.000000 1.000000 1.000000 1.000000
85 1 151.703172 200.836425 151.703172 200.836425 0.000000 0.000000 1.000000 1.000000 1.000000
86 1 220.627524 158.122576 220.627524 158.122576 0.000000 -0.000000 1.000000 1.000000 1.000000
87 1 34.527413 87.719781 34.527413 87.719781 0.000000 -0.000000 1.000000 1.000000 1.000000
88 1 176.853944 34.691107 176.853944 34.691107 -0.000000 -0.000000 1.000000 1.000000 1.000000
89 1 130.893292 215.269209 130.893292 215.269209 -0.000000 0.000000 1.000000 1.000000 1.000000
90 1 230.546533 28.971787 -2.431649 28.971787 0.000000 -0.000000 1.000000 1.000000 1.000000
91 1 176.653856 103.219999 176.653856 103.219999 0.000000 0.000000 1.000000 1.000000 1.000000
92 1 56.106595 197.971370 56.106595 197.971370 0.000000 -0.000000 1.000000 1.000000 1.000000
93 1 2.446892 121.760222 2.446892 121.760222 0.000000 0.000000 1.000000 1.000000 1.000000
94 1 130.270368 164.629444 130.270368 164.629444 -0.000000 0.000000 1.000000 1.000000 1.000000
95 1 151.419706 146.426421 151.419706 146.426421 0.000000 -0.000000 1.000000 1.000000 1.000000
96 1 211.573823 55.900138 211.573823 55.900138 0.000000 -0.000000 1.000000 1.000000 1.000000
97 1 32.018228 162.367228 32.018228 162.367228 -0.000000 0.000000 1.000000 1.000000 1.000000
98 1 2.345663 156.287259 2.345663 156.287259 0.000000 -0.000000 1.000000 1.000000 1.000000
99 1 232.777836 63.953225 -0.200346 63.953225 -0.000000 0.000000 1.000000 1.000000 1.000000
100 1 95.222924 75.155611 95.222924 75.155611 0.000000 0.000000 1.000000 1.000000 1.000000
101 1 219.071669 70.231516 219.071669 70.231516 -0.000000 0.000000 1.000000 1.000000 1.000000
102 1 186.703806 53.073060 186.703806 53.073060 0.000000 -0.000000 1.000000 1.000000 1.000000
103 1 110.815580 172.318597 110.815580 172.318597 0.000000 -0.000000 1.000000 1.000000 1.000000
104 1 125.514419 73.018135 125.514419 73.018135 -0.000000 0.000000 1.000000 1.000000 1.000000
105 1 122.621176 114.102770 122.621176 114.102770 -0.000000 -0.000000 1.000000 1.000000 1.000000
106 1 81.433646 141.205040 81.433646 141.205040 0.000000 -0.000000 1.000000 1.000000 1.000000
107 1 149.386120 108.671418 149.386120 108.671418 -0.000000 0.000000 1.000000 1.000000 1.000000
108 1 119.285486 80.811487 119.285486 80.811487 0.000000 -0.000000 1.000000 1.000000 1.000000
109 1 120.875370 40.597881 120.875370 40.597881 -0.000000 0.000000 1.000000 1.000000 1.000000
110 1 67.493420 37.727506 67.493420 37.727506 0.000000 -0.000000 1.000000 1.000000 1.000000
111 1 136.873609 218.850721 136.873609 218.850721 -0.000000 -0.000000 1.000000 1.000000 1.000000
112 1 98.231973 56.111855 98.231973 56.111855 0.000000 0.000000 1.000000 1.000000 1.000000
113 1 168.317025 185.338839 168.317025 185.338839 -0.000000 -0.000000 1.000000 1.000000 1.000000
114 1 140.992327 62.823264 140.992327 62.823264 -0.000000 0.000000 1.000000 1.000000 1.000000
115 1 161.922251 212.896117 161.922251 212.896117 0.000000 -0.000000 1.000000 1.000000 1.000000
116 1 142.658072 103.573838 142.658072 103.573838 -0.000000 -0.000000 1.000000 1.000000 1.000000
117 1 60.703485 204.096262 60.703485 204.096262 -0.000000 0.000000 1.000000 1.000000 1.000000
118 1 14.712326 74.350860 14.712326 74.350860 0.000000 -0.000000 1.000000 1.000000 1.000000
119 1 77.951334 126.453086 77.951334 126.453086 -0.000000 -0.000000 1.000000 1.000000 1.000000
120 1 182.809892 146.239325 182.809892 146.239325 -0.000000 0.000000 1.000000 1.000000 1.000000
121 1 200.418517 49.751490 200.418517 49.751490 0.000000 0.000000 1.000000 1.000000 1.000000
122 1 83.863328 224.394656 83.863328 224.394656 -0.000000 -0.000000 1.000000 1.000000 1.000000
123 1 232.407082 161.859640 -0.571100 161.859640 -0.000000 0.000000 1.000000 1.000000 1.000000
124 1 223.206701 22.196513 223.206701 22.196513 0.000000 -0.000000 1.000000 1.000000 1.000000
125 1 171.832582 37.833013 171.832582 37.833013 0.000000 -0.000000 1.000000 1.000000 1.000000
126 1 68.278501 63.864603 68.278501 63.864603 -0.000000 -0.000000 1.000000 1.000000 1.000000
127 1 201.332443 11.170000 201.332443 11.170000 0.000000 0.000000 1.000000 1.000000 1.000000
128 1 222.903900 231.327018 222.903900 -1.651164 -0.000000 -0.000000 1.000000 1.000000 1.000000
129 1 25.072057 225.583347 25.072057 225.583347 -0.000000 0.000000 1.000000 1.000000 1.000000
130 1 172.407844 210.007901 172.407844 210.007901 0.000000 0.000000 1.000000 1.000000 1.000000
131 1 179.245180 112.249203 179.245180 112.249203 0.000000 -0.000000 1.000000 1.000000 1.000000
132 1 53.234457 103.574076 53.234457 103.574076 -0.000000 -0.000000 1.000000 1.000000 1.000000
133 1 123.230763 46.384347 123.230763 46.384347 -0.000000 0.000000 1.000000 1.000000 1.000000
134 1 45.822154 113.787576 45.822154 113.787576 0.000000 0.000000 1.000000 1.000000 1.000000
135 1 36.130456 57.337255 36.130456 57.337255 -0.000000 -0.000000 1.000000 1.000000 1.000000
136 1 93.458573 85.566332 93.458573 85.566332 0.000000 -0.000000 1.000000 1.000000 1.000000
137 1 178.215401 157.374210 178.215401 157.374210 0.000000 0.000000 1.000000 1.000000 1.000000
138 1 175.950105 146.625615 175.950105 146.625615 -0.000000 0.000000 1.000000 1.000000 1.000000
139 1 172.516339 5.014714 172.516339 237.992896 0.000000 0.000000 1.000000 1.000000 1.000000
140 1 136.064317 171.382816 136.064317 171.382816 0.000000 0.000000 1.000000 1.000000 1.000000
141 1 8.948815 86.152152 8.948815 86.152152 -0.000000 -0.000000 1.000000 1.000000 1.000000
142 1 153.104328 127.004736 153.104328 127.004736 0.000000 0.000000 1.000000 1.000000 1.000000
143 1 221.205182 26.143027 221.205182 26.143027 0.000000 0.000000 1.000000 1.000000 1.000000
144 1 14.749041 42.085946 14.749041 42.085946 -0.000000 0.000000 1.000000 1.000000 1.000000
145 1 139.466893 14.035111 139.466893 14.035111 0.000000 0.000000 1.000000 1.000000 1.000000
146 1 12.795417 13.779307 12.795417 13.779307 -0.000000 0.000000 1.000000 1.000000 1.000000
147 1 129.532576 219.208763 129.532576 219.208763 0.000000 -0.000000 1.000000 1.000000 1.000000
148 1 228.094970 156.533930 -4.883212 156.533930 0.000000 -0.000000 1.000000 1.000000 1.000000
149 1 13.551509 29.580654 13.551509 29.580654 0.000000 0.000000 1.000000 1.000000 1.000000
150 1 12.018989 154.239978 244.997171 154.239978 -0.000000 -0.000000 1.000000 1.000000 1.000000
151 1 166.193949 118.548844 166.193949 118.548844 -0.000000 0.000000 1.000000 1.000000 1.000000
152 1 130.015721 167.912899 130.015721 167.912899 -0.000000 0.000000 1.000000 1.000000 1.000000
153 1 53.433572 154.593951 53.433572 154.593951 0.000000 -0.000000 1.000000 1.000000 1.000000
154 1 114.054097 179.746543 114.054097 179.746543 0.000000 -0.000000 1.000000 1.000000 1.000000
155 1 62.486871 62.261897 62.486871 62.261897 0.000000 -0.000000 1.000000 1.000000 1.000000
156 1 70.191648 121.890961 70.191648 121.890961 0.000000 0.000000 1.000000 1.000000 1.000000
157 1 126.779202 155.124048 126.779202 155.124048 0.000000 -0.000000 1.000000 1.000000 1.000000
158 1 53.154999 231.963438 53.154999 231.963438 -0.000000 0.000000 1.000000 1.000000 1.000000
159 1 123.138845 15.889528 123.138845 15.889528 -0.000000 0.000000 1.000000 1.000000 1.000000
160 1 75.718096 112.859833 75.718096 112.859833 0.000000 0.000000 1.000000 1.000000 1.000000
161 1 79.912033 109.569287 79.912033 109.569287 0.000000 0.000000 1.000000 1.000000 1.000000
162 1 229.924784 165.595313 229.924784 165.595313 0.000000 0.000000 1.000000 1.000000 1.000000
163 1 161.053043 99.135902 161.053043 99.135902 0.000000 0.000000 1.000000 1.000000 1.000000
164 1 25.161043 204.126868 25.161043 204.126868 0.000000 -0.000000 1.000000 1.000000 1.000000
165 1 125.147824 60.055737 125.147824 60.055737 -0.000000 0.000000 1.000000 1.000000 1.000000
166 1 188.807622 153.282956 188.807622 153.282956 -0.000000 0.000000 1.000000 1.000000 1.000000
167 1 195.553347 189.831288 195.553347 189.831288 0.000000 -0.000000 1.000000 1.000000 1.000000
168 1 139.131507 72.770237 139.131507 72.770237 0.000000 0.000000 1.000000 1.000000 1.000000
169 1 14.240211 226.784095 14.240211 226.784095 -0.000000 0.000000 1.000000 1.000000 1.000000
170 1 99.165566 77.159141 99.165566 77.159141 0.000000 -0.000000 1.000000 1.000000 1.000000
171 1 95.649562 188.005256 95.649562 188.005256 0.000000 0.000000 1.000000 1.000000 1.000000
172 1 47.532549 80.905119 47.532549 80.905119 0.000000 -0.000000 1.000000 1.000000 1.000000
173 1 208.113053 185.672602 208.113053 185.672602 -0.000000 0.000000 1.000000 1.000000 1.000000
174 1 85.714661 41.394963 85.714661 41.394963 0.000000 0.000000 1.000000 1.000000 1.000000
175 1 168.069518 201.111802 168.069518 201.111802 -0.000000 0.000000 1.000000 1.000000 1.000000
176 1 7.889160 96.817644 7.889160 96.817644 0.000000 0.000000 1.000000 1.000000 1.000000
177 1 108.719765 65.216261 108.719765 65.216261 -0.000000 -0.000000 1.000000 1.000000 1.000000
178 1 167.170726 210.675513 167.170726 210.675513 -0.000000 -0.000000 1.000000 1.000000 1.000000
179 1 77.820344 107.495160 77.820344 107.495160 0.000000 0.000000 1.000000 1.000000 1.000000
180 1 111.011917 20.203018 111.011917 20.203018 -0.000000 0.000000 1.000000 1.000000 1.000000
181 1 227.740055 112.624269 227.740055 112.624269 -0.000000 -0.000000 1.000000 1.000000 1.000000
182 1 189.436262 123.780014 189.436262 123.780014 -0.000000 0.000000 1.000000 1.000000 1.000000
183 1 56.772842 101.327181 56.772842 101.327181 0.000000 -0.000000 1.000000 1.000000 1.000000
184 1 88.436939 32.802278 88.436939 32.802278 -0.000000 -0.000000 1.000000 1.000000 1.000000
185 1 25.463456 83.096624 25.463456 83.096624 0.000000 -0.000000 1.000000 1.000000 1.000000
186 1 172.706634 183.621933 172.706634 183.621933 -0.000000 -0.000000 1.000000 1.000000 1.000000
187 1 8.107899 59.108071 8.107899 59.108071 0.000000 0.000000 1.000000 1.000000 1.000000
188 1 5.802213 150.729616 5.802213 150.729616 0.000000 -0.000000 1.000000 1.000000 1.000000
189 1 35.859954 24.960538 35.859954 24.960538 0.000000 -0.000000 1.000000 1.000000 1.000000
190 1 119.500484 110.442868 119.500484 110.442868 0.000000 0.000000 1.000000 1.000000 1.000000
191 1 102.751908 2.292928 102.751908 235.271110 0.000000 0.000000 1.000000 1.000000 1.000000
192 1 115.496218 232.028446 115.496218 -0.949736 -0.000000 -0.000000 1.000000 1.000000 1.000000
193 1 127.101279 120.686722 127.101279 120.686722 0.000000 0.000000 1.000000 1.000000 1.000000
194 1 52.040660 177.819358 52.040660 177.819358 0.000000 0.000000 1.000000 1.000000 1.000000
195 1 48.217144 141.431710 48.217144 141.431710 -0.000000 0.000000 1.000000 1.000000 1.000000
196 1 127.525738 10.955655 127.525738 10.955655 -0.000000 -0.000000 1.000000 1.000000 1.000000
197 1 115.172215 213.703689 115.172215 213.703689 -0.000000 -0.000000 1.000000 1.000000 1.000000
198 1 23.389206 210.590482 23.389206 210.590482 -0.000000 0.000000 1.000000 1.000000 1.000000
199 1 33.288737 149.609434 33.288737 149.609434 -0.000000 0.000000 1.000000 1.000000 1.000000
200 1 154.650123 223.262185 154.650123 223.262185 0.000000 0.000000 1.000000 1.000000 1.000000
201 1 229.262506 65.266020 -3.715676 65.266020 0.000000 0.000000 1.000000 1.000000 1.000000
202 1 126.128271 49.908883 126.128271 49.908883 -0.000000 -0.000000 1.000000 1.000000 1.000000
203 1 159.007376 206.155691 159.007376 206.155691 0.000000 0.000000 1.000000 1.000000 1.000000
204 1 210.885719 202.838969 210.885719 202.838969 0.000000 0.000000 1.000000 1.000000 1.000000
205 1 85.442888 14.051828 85.442888 14.051828 0.000000 0.000000 1.000000 1.000000 1.000000
206 1 231.127050 232.532146 -1.851132 232.532146 0.000000 -0.000000 1.000000 1.000000 1.000000
207 1 28.358974 232.608624 28.358974 -0.369558 0.000000 0.000000 1.000000 1.000000 1.000000
208 1 116.103836 51.231654 116.103836 51.231654 -0.000000 -0.000000 1.000000 1.000000 1.000000
209 1 84.228819 228.118233 84.228819 -4.859949 0.000000 -0.000000 1.000000 1.000000 1.000000
210 1 42.319898 55.269628 42.319898 55.269628 0.000000 0.000000 1.000000 1.000000 1.000000
211 1 84.630888 208.633699 84.630888 208.633699 0.000000 0.000000 1.000000 1.000000 1.000000
212 1 79.372825 14.288419 79.372825 247.266601 0.000000 0.000000 1.000000 1.000000 1.000000
213 1 231.316904 59.390194 -1.661278 59.390194 -0.000000 0.000000 1.000000 1.000000 1.000000
214 1 4.460914 94.300755 4.460914 94.300755 -0.000000 0.000000 1.000000 1.000000 1.000000
215 1 182.172622 232.452083 182.172622 -0.526099 0.000000 -0.000000 1.000000 1.000000 1.000000
216 1 79.873880 111.573435 79.873880 111.573435 -0.000000 0.000000 1.000000 1.000000 1.000000
217 1 86.063258 155.596904 86.063258 155.596904 0.000000 -0.000000 1.000000 1.000000 1.000000
218 1 68.092406 148.395066 68.092406 148.395066 -0.000000 0.000000 1.000000 1.000000 1.000000
219 1 231.827432 134.656655 -1.150750 134.656655 0.000000 -0.000000 1.000000 1.000000 1.000000
220 1 199.092538 51.659377 199.092538 51.659377 0.000000 -0.000000 1.000000 1.000000 1.000000
221 1 104.654595 147.810100 104.654595 147.810100 0.000000 0.000000 1.000000 1.000000 1.000000
222 1 63.167310 202.216118 63.167310 202.216118 0.000000 0.000000 1.000000 1.000000 1.000000
223 1 124.754889 154.008107 124.754889 154.008107 -0.000000 -0.000000 1.000000 1.000000 1.000000
224 1 70.817821 135.376607 70.817821 135.376607 0.000000 0.000000 1.000000 1.000000 1.000000
225 1 69.760430 156.407849 69.760430 156.407849 -0.000000 -0.000000 1.000000 1.000000 1.000000
226 1 97.207294 12.984029 97.207294 12.984029 0.000000 -0.000000 1.000000 1.000000 1.000000
227 1 7.380819 149.015443 7.380819 149.015443 0.000000 -0.000000 1.000000 1.000000 1.000000
228 1 61.645361 33.667796 61.645361 33.667796 -0.000000 -0.000000 1.000000 1.000000 1.000000
229 1 69.082081 229.659045 69.082081 -3.319137 -0.000000 0.000000 1.000000 1.000000 1.000000
230 1 217.899944 142.352954 217.899944 142.352954 0.000000 -0.000000 1.000000 1.000000 1.000000
231 1 68.976760 51.010611 68.976760 51.010611 -0.000000 -0.000000 1.000000 1.000000 1.000000
232 1 158.980849 55.768113 158.980849 55.768113 -0.000000 0.000000 1.000000 1.000000 1.000000
233 1 224.883370 214.659797 224.883370 214.659797 0.000000 -0.000000 1.000000 1.000000 1.000000
234 1 179.515037 82.600876 179.515037 82.600876 0.000000 -0.000000 1.000000 1.000000 1.000000
235 1 60.489661 53.573849 60.489661 53.573849 0.000000 -0.000000 1.000000 1.000000 1.000000
236 1 229.433034 49.209925 -3.545148 49.209925 0.000000 0.000000 1.000000 1.000000 1.000000
237 1 174.360974 128.771176 174.360974 128.771176 0.000000 -0.000000 1.000000 1.000000 1.000000
238 1 179.929833 173.674403 179.929833 173.674403 -0.000000 0.000000 1.000000 1.000000 1.000000
239 1 153.533565 211.704181 153.533565 211.704181 0.000000 0.000000 1.000000 1.000000 1.000000
240 1 163.873513 126.551981 163.873513 126.551981 -0.000000 0.000000 1.000000 1.000000 1.000000
241 1 18.241939 30.478331 18.241939 30.478331 -0.000000 0.000000 1.000000 1.000000 1.000000
242 1 67.973305 119.305963 67.973305 119.305963 0.000000 -0.000000 1.000000 1.000000 1.000000
243 1 106.955766 64.260834 106.955766 64.260834 -0.000000 0.000000 1.000000 1.000000 1.000000
244 1 230.832642 77.317273 -2.145540 77.317273 -0.000000 0.000000 1.000000 1.000000 1.000000
245 1 40.583823 141.415396 40.583823 141.415396 -0.000000 -0.000000 1.000000 1.000000 1.000000
246 1 175.255315 47.066071 175.255315 47.066071 0.000000 0.000000 1.000000 1.000000 1.000000
247 1 52.979110 80.797983 52.979110 80.797983 -0.000000 -0.000000 1.000000 1.000000 1.000000
248 1 173.865161 131.003190 173.865161 131.003190 -0.000000 0.000000 1.000000 1.000000 1.000000
249 1 57.690719 58.118697 57.690719 58.118697 0.000000 0.000000 1.000000 1.000000 1.000000
250 1 58.732323 204.960574 58.732323 204.960574 0.000000 0.000000 1.000000 1.000000 1.000000
251 1 102.395193 220.990293 102.395193 220.990293 0.000000 -0.000000 1.000000 1.000000 1.000000
252 1 43.099713 107.838629 43.099713 107.838629 -0.000000 -0.000000 1.000000 1.000000 1.000000
253 1 136.273732 68.759656 136.273732 68.759656 -0.000000 -0.000000 1.000000 1.000000 1.000000
254 1 98.839251 74.941685 98.839251 74.941685 0.000000 -0.000000 1.000000 1.000000 1.000000
255 1 107.929265 178.128172 107.929265 178.128172 -0.000000 0.000000 1.000000 1.000000 1.000000
256 1 64.582149 112.218325 64.582149 112.218325 0.000000 0.000000 1.000000 1.000000 1.000000
257 1 42.058245 97.088903 42.058245 97.088903 0.000000 -0.000000 1.000000 1.000000 1.000000
258 1 170.772141 143.566250 170.772141 143.566250 -0.000000 0.000000 1.000000 1.000000 1.000000
259 1 14.437644 15.341443 14.437644 15.341443 -0.000000 -0.000000 1.000000 1.000000 1.000000
260 1 176.844480 195.111710 176.844480 195.111710 -0.000000 -0.000000 1.000000 1.000000 1.000000
261 1 86.929267 51.470200 86.929267 51.470200 -0.000000 -0.000000 1.000000 1.000000 1.000000
262 1 43.542140 25.217301 43.542140 25.217301 -0.000000 0.000000 1.000000 1.000000 1.000000
263 1 168.002658 142.059912 168.002658 142.059912 -0.000000 -0.000000 1.000000 1.000000 1.000000
264 1 163.319889 152.366247 163.319889 152.366247 -0.000000 -0.000000 1.000000 1.000000 1.000000
265 1 85.706976 139.586499 85.706976 139.586499 -0.000000 0.000000 1.000000 1.000000 1.000000
266 1 193.930088 158.767918 193.930088 158.767918 -0.000000 -0.000000 1.000000 1.000000 1.000000
267 1 189.116860 14.043020 189.116860 14.043020 0.000000 -0.000000 1.000000 1.000000 1.000000
268 1 189.414982 150.599514 189.414982 150.599514 -0.000000 -0.000000 1.000000 1.000000 1.000000
269 1 143.559580 21.413636 143.559580 21.413636 0.000000 -0.000000 1.000000 1.000000 1.000000
270 1 195.179645 120.476040 195.179645 120.476040 -0.000000 -0.000000 1.000000 1.000000 1.000000
271 1 209.284428 198.300646 209.284428 198.300646 0.000000 0.000000 1.000000 1.000000 1.000000
272 1 174.017770 104.681720 174.017770 104.681720 -0.000000 0.000000 1.000000 1.000000 1.000000
273 1 27.286168 120.241327 27.286168 120.241327 -0.000000 0.000000 1.000000 1.000000 1.000000
274 1 87.644566 178.039361 87.644566 178.039361 0.000000 -0.000000 1.000000 1.000000 1.000000
275 1 138.523234 28.304134 138.523234 28.304134 0.000000 -0.000000 1.000000 1.000000 1.000000
276 1 161.273445 107.105059 161.273445 107.105059 -0.000000 0.000000 1.000000 1.000000 1.000000
277 1 193.048168 133.705892 193.048168 133.705892 -0.000000 -0.000000 1.000000 1.000000 1.000000
278 1 54.092389 164.632386 54.092389 164.632386 0.000000 0.000000 1.000000 1.000000 1.000000
279 1 209.471462 119.495316 -23.506720 119.495316 -0.000000 -0.000000 1.000000 1.000000 1.000000
280 1 165.982672 53.281436 165.982672 53.281436 -0.000000 -0.000000 1.000000 1.000000 1.000000
281 1 79.459963 141.710934 79.459963 141.710934 -0.000000 -0.000000 1.000000 1.000000 1.000000
282 1 131.518561 122.100307 131.518561 122.100307 -0.000000 -0.000000 1.000000 1.000000 1.000000
283 1 116.788964 118.275218 116.788964 118.275218 -0.000000 -0.000000 1.000000 1.000000 1.000000
284 1 218.524766 34.901826 218.524766 34.901826 0.000000 -0.000000 1.000000 1.000000 1.000000
285 1 117.290650 188.719187 117.290650 188.719187 -0.000000 -0.000000 1.000000 1.000000 1.000000
286 1 153.624440 4.167785 153.624440 4.167785 -0.000000 0.000000 1.000000 1.000000 1.000000
287 1 143.886335 189.050643 143.886335 189.050643 -0.000000 -0.000000 1.000000 1.000000 1.000000
288 1 191.577303 54.278679 191.577303 54.278679 0.000000 -0.000000 1.000000 1.000000 1.000000
289 1 140.812128 149.517477 140.812128 149.517477 0.000000 0.000000 1.000000 1.000000 1.000000
290 1 103.933318 49.447622 103.933318 49.447622 0.000000 0.000000 1.000000 1.000000 1.000000
291 1 79.326699 34.554787 79.326699 34.554787 0.000000 0.000000 1.000000 1.000000 1.000000
292 1 84.403286 82.586134 84.403286 82.586134 -0.000000 0.000000 1.000000 1.000000 1.000000
293 1 56.000203 19.620543 56.000203 19.620543 -0.000000 0.000000 1.000000 1.000000 1.000000
294 1 7.750185 222.834859 240.728367 222.834859 -0.000000 0.000000 1.000000 1.000000 1.000000
295 1 65.843028 169.079837 65.843028 169.079837 -0.000000 -0.000000 1.000000 1.000000 1.000000
296 1 153.756942 65.820328 153.756942 65.820328 -0.000000 -0.000000 1.000000 1.000000 1.000000
297 1 191.506535 75.822217 191.506535 75.822217 0.000000 -0.000000 1.000000 1.000000 1.000000
298 1 16.288660 134.362037 16.288660 134.362037 -0.000001 -0.000001 1.000000 1.000000 1.000000
299 1 230.198649 32.339562 230.198649 32.339562 -0.000000 0.000000 1.000000 1.000000 1.000000
300 1 44.257429 55.819534 44.257429 55.819534 -0.000000 0.000000 1.000000 1.000000 1.000000
301 1 101.712233 78.527648 101.712233 78.527648 0.000000 0.000000 1.000000 1.000000 1.000000
302 1 52.768634 18.588156 52.768634 18.588156 -0.000000 -0.000000 1.000000 1.000000 1.000000
303 1 192.964653 39.955557 192.964653 39.955557 0.000000 -0.000000 1.000000 1.000000 1.000000
304 1 27.791340 145.267812 27.791340 145.267812 -0.000000 -0.000000 1.000000 1.000000 1.000000
305 1 144.303956 109.707502 144.303956 109.707502 -0.000000 -0.000000 1.000000 1.000000 1.000000
306 1 81.782515 124.496793 81.782515 124.496793 0.000000 -0.000000 1.000000 1.000000 1.000000
307 1 209.288900 97.175412 209.288900 97.175412 0.000000 0.000000 1.000000 1.000000 1.000000
308 1 94.001718 150.293655 94.001718 150.293655 -0.000000 0.000000 1.000000 1.000000 1.000000
309 1 28.648993 75.404060 28.648993 75.404060 0.000000 -0.000000 1.000000 1.000000 1.000000
310 1 40.774784 219.632730 40.774784 -13.345452 -0.000000 0.000000 1.000000 1.000000 1.000000
311 1 130.492116 178.937878 130.492116 178.937878 -0.000000 0.000000 1.000000 1.000000 1.000000
312 1 30.094615 38.539206 30.094615 38.539206 0.000000 0.000000 1.000000 1.000000 1.000000
313 1 126.195025 159.491366 126.195025 159.491366 -0.000000 0.000000 1.000000 1.000000 1.000000
314 1 135.726801 102.850518 135.726801 102.850518 0.000000 0.000000 1.000000 1.000000 1.000000
315 1 95.547031 109.288200 95.547031 109.288200 0.000000 0.000000 1.000000 1.000000 1.000000
316 1 185.715626 60.649963 185.715626 60.649963 -0.000000 0.000000 1.000000 1.000000 1.000000
317 1 40.348247 79.475075 40.348247 79.475075 0.000000 0.000000 1.000000 1.000000 1.000000