ITEM: TIMESTEP
1400.000000
ITEM: NUMBER OF ATOMS
5000
ITEM: BOX BOUNDS xy xz yz
0 283.489581 0
0 283.489581 0
0 2 0
ITEM: ATOMS id type x y xu yu vx vy radius m z
0 1 281.331147 216.602567 281.331147 216.602567 -0.000000 -0.000000 1.000000 1.000000 1.000000
1 1 164.099422 14.331882 164.099422 14.331882 -0.000000 -0.000000 1.000000 1.000000 1.000000
2 1 35.663770 275.370276 35.663770 275.370276 -0.000000 0.000000 1.000000 1.000000 1.000000
3 1 263.325979 197.958761 263.325979 197.958761 0.000000 0.000000 1.000000 1.000000 1.000000
4 1 233.314169 5.647303 233.314169 289.136884 -0.000000 0.000000 1.000000 1.000000 1.000000
5 1 72.328270 205.340150 72.328270 205.340150 0.000000 -0.000000 1.000000 1.000000 1.000000
6 1 194.693629 242.082152 194.693629 242.082152 -0.000000 0.000000 1.000000 1.000000 1.000000
7 1 219.988343 69.448949 219.988343 69.448949 -0.000000 -0.000000 1.000000 1.000000 1.000000
8 1 4.388721 233.596526 287.878302 233.596526 -0.000000 -0.000000 1.000000 1.000000 1.000000
9 1 102.918197 40.480210 102.918197 40.480210 -0.000000 -0.000000 1.000000 1.000000 1.000000
10 1 60.506242 81.577703 60.506242 81.577703 -0.000000 0.000000 1.000000 1.000000 1.000000
11 1 150.371691 67.706157 150.371691 67.706157 -0.000001 -0.000000 1.000000 1.000000 1.000000
12 1 256.947921 75.906864 256.947921 75.906864 0.000000 0.000000 1.000000 1.000000 1.000000
13 1 172.548526 245.606813 172.548526 245.606813 -0.000000 0.000000 1.000000 1.000000 1.000000
14 1 206.385329 19.831847 206.385329 19.831847 0.000000 -0.000000 1.000000 1.000000 1.000000
15 1 131.057369 89.030715 131.057369 89.030715 0.000000 0.000000 1.000000 1.000000 1.000000
16 1 76.167088 163.559702 76.167088 163.559702 0.000000 0.000000 1.000000 1.000000 1.000000
17 1 271.935315 57.344783 271.935315 57.344783 0.000000 0.000000 1.000000 1.000000 1.000000
18 1 57.842689 222.204536 57.842689 222.204536 -0.000000 0.000000 1.000000 1.000000 1.000000
19 1 32.410135 171.445788 32.410135 171.445788 0.000000 -0.000000 1.000000 1.000000 1.000000
20 1 254.441329 112.001996 254.441329 112.001996 0.000000 -0.000000 1.000000 1.000000 1.000000
21 1 136.489518 178.418616 136.489518 178.418616 0.000000 -0.000000 1.000000 1.000000 1.000000
22 1 279.093849 72.927952 -4.395732 72.927952 0.000000 0.000000 1.000000 1.000000 1.000000
23 1 87.201931 150.877689 87.201931 150.877689 0.000000 0.000000 1.000000 1.000000 1.000000
24 1 83.329754 158.446574 83.329754 158.446574 0.000000 -0.000000 1.000000 1.000000 1.000000
25 1 68.649588 268.394965 68.649588 -15.094616 -0.000000 -0.000000 1.000000 1.000000 1.000000
26 1 59.580633 197.589239 59.580633 197.589239 0.000000 -0.000000 1.000000 1.000000 1.000000
27 1 12.884601 61.967226 12.884601 61.967226 0.000000 0.000000 1.000000 1.000000 1.000000
28 1 249.125095 81.814540 249.125095 81.814540 0.000000 0.000000 1.000000 1.000000 1.000000
29 1 156.157653 80.115821 156.157653 80.115821 0.000000 0.000000 1.000000 1.000000 1.000000
30 1 101.476958 2.485199 101.476958 285.974780 -0.000000 0.000000 1.000000 1.000000 1.000000
31 1 267.453081 102.255924 267.453081 102.255924 0.000000 0.000000 1.000000 1.000000 1.000000
32 1 115.417114 264.451155 115.417114 264.451155 -0.000000 0.000000 1.000000 1.000000 1.000000
33 1 78.621974 171.913064 78.621974 171.913064 -0.000000 -0.000000 1.000000 1.000000 1.000000
34 1 100.558671 46.310950 100.558671 46.310950 0.000000 0.000000 1.000000 1.000000 1.000000
35 1 220.521648 146.856381 220.521648 146.856381 0.000000 -0.000000 1.000000 1.000000 1.000000
36 1 174.537875 65.176043 174.537875 65.176043 0.000000 -0.000000 1.000000 1.000000 1.000000
37 1 146.582979 184.426088 146.582979 184.426088 0.000000 0.000000 1.000000 1.000000 1.000000
38 1 267.688601 272.355578 267.688601 272.355578 -0.000000 -0.000000 1.000000 1.000000 1.000000
39 1 148.818935 186.492515 148.818935 186.492515 -0.000000 -0.000000 1.000000 1.000000 1.000000
40 1 216.101986 251.275947 216.101986 251.275947 0.000000 0.000000 1.000000 1.000000 1.000000
41 1 22.908380 36.296943 22.908380 36.296943 -0.000000 0.000000 1.000000 1.000000 1.000000
42 1 54.086282 95.659611 54.086282 95.659611 0.000000 0.000000 1.000000 1.000000 1.000000
43 1 119.654671 145.706651 119.654671 145.706651 -0.000000 -0.000000 1.000000 1.000000 1.000000
44 1 242.468569 274.027722 242.468569 274.027722 -0.000000 -0.000000 1.000000 1.000000 1.000000
45 1 204.319364 259.550927 204.319364 259.550927 -0.000000 0.000000 1.000000 1.000000 1.000000
46 1 112.174621 219.105941 112.174621 219.105941 0.000000 0.000000 1.000000 1.000000 1.000000
47 1 215.011564 164.659485 215.011564 164.659485 0.000000 -0.000000 1.000000 1.000000 1.000000
48 1 67.236150 270.095742 67.236150 270.095742 -0.000000 -0.000000 1.000000 1.000000 1.000000
49 1 34.657584 58.307341 34.657584 58.307341 -0.000000 -0.000000 1.000000 1.000000 1.000000
50 1 23.713005 13.571537 23.713005 13.571537 0.000000 -0.000000 1.000000 1.000000 1.000000
51 1 232.002005 186.968294 232.002005 186.968294 0.000000 -0.000000 1.000000 1.000000 1.000000
52 1 265.921506 237.858374 265.921506 237.858374 -0.000000 -0.000000 1.000000 1.000000 1.000000
53 1 191.823507 7.407381 191.823507 7.407381 0.000000 0.000000 1.000000 1.000000 1.000000
54 1 160.030750 13.001351 160.030750 13.001351 0.000000 -0.000000 1.000000 1.000000 1.000000
55 1 182.048621 143.746324 182.048621 143.746324 0.000000 -0.000000 1.000000 1.000000 1.000000
56 1 216.184112 25.082589 216.184112 25.082589 -0.000000 0.000000 1.000000 1.000000 1.000000
57 1 264.386466 172.233298 264.386466 172.233298 -0.000000 -0.000000 1.000000 1.000000 1.000000
58 1 77.827913 272.930175 77.827913 272.930175 0.000000 0.000000 1.000000 1.000000 1.000000
59 1 90.313815 155.060426 90.313815 155.060426 0.000000 -0.000000 1.000000 1.000000 1.000000
60 1 274.576757 43.470932 -8.912824 43.470932 -0.000000 0.000000 1.000000 1.000000 1.000000
61 1 239.262055 236.528485 239.262055 236.528485 0.000000 0.000000 1.000000 1.000000 1.000000
62 1 209.331732 124.438721 209.331732 124.438721 0.000000 -0.000000 1.000000 1.000000 1.000000
63 1 122.195356 44.692990 122.195356 44.692990 -0.000000 0.000000 1.000000 1.000000 1.000000
64 1 65.329617 140.075873 65.329617 140.075873 0.000000 -0.000000 1.000000 1.000000 1.000000
65 1 24.734392 212.614609 24.734392 212.614609 0.000000 -0.000000 1.000000 1.000000 1.000000
66 1 166.454810 173.520338 166.454810 173.520338 -0.000000 0.000000 1.000000 1.000000 1.000000
67 1 153.158352 67.718280 153.158352 67.718280 0.000001 -0.000002 1.000000 1.000000 1.000000
68 1 93.996737 253.958226 93.996737 253.958226 -0.000000 0.000000 1.000000 1.000000 1.000000
69 1 266.393034 155.797167 266.393034 155.797167 -0.000000 0.000000 1.000000 1.000000 1.000000
70 1 25.093617 224.422916 25.093617 224.422916 -0.000000 0.000000 1.000000 1.000000 1.000000
71 1 176.209311 207.927028 176.209311 207.927028 -0.000000 0.000000 1.000000 1.000000 1.000000
72 1 18.288451 142.697611 18.288451 142.697611 -0.000000 -0.000000 1.000000 1.000000 1.000000
73 1 111.886594 154.790806 111.886594 154.790806 -0.000000 -0.000000 1.000000 1.000000 1.000000
74 1 148.383932 163.320413 148.383932 163.320413 0.000000 0.000000 1.000000 1.000000 1.000000
75 1 151.165590 18.866706 151.165590 18.866706 -0.000000 -0.000000 1.000000 1.000000 1.000000
76 1 263.773290 152.453397 263.773290 152.453397 -0.000000 0.000000 1.000000 1.000000 1.000000
77 1 240.719900 59.895810 240.719900 59.895810 -0.000000 0.000000 1.000000 1.000000 1.000000
78 1 10.713155 69.860955 10.713155 69.860955 -0.000000 -0.000000 1.000000 1.000000 1.000000
79 1 128.069900 178.307154 128.069900 178.307154 0.000000 0.000000 1.000000 1.000000 1.000000
80 1 99.544420 160.821429 99.544420 160.821429 0.000000 0.000000 1.000000 1.000000 1.000000
81 1 231.228427 48.770275 231.228427 48.770275 0.000000 0.000000 1.000000 1.000000 1.000000
82 1 270.922119 238.796859 270.922119 238.796859 -0.000000 -0.000000 1.000000 1.000000 1.000000
83 1 281.668321 58.557498 281.668321 58.557498 -0.000000 0.000000 1.000000 1.000000 1.000000
84 1 189.175712 239.766973 189.175712 239.766973 0.000000 -0.000000 1.000000 1.000000 1.000000
85 1 234.060327 138.782766 234.060327 138.782766 -0.000000 -0.000000 1.000000 1.000000 1.000000
86 1 222.225700 259.615608 222.225700 259.615608 0.000000 -0.000000 1.000000 1.000000 1.000000
87 1 174.018614 75.623891 174.018614 75.623891 -0.000000 0.000000 1.000000 1.000000 1.000000
88 1 120.746450 258.436607 120.746450 258.436607 0.000000 -0.000000 1.000000 1.000000 1.000000
89 1 260.309808 123.651177 260.309808 123.651177 -0.000000 0.000000 1.000000 1.000000 1.000000
90 1 218.997060 173.982360 218.997060 173.982360 -0.000000 0.000000 1.000000 1.000000 1.000000
91 1 175.713349 213.432137 175.713349 213.432137 -0.000000 -0.000000 1.000000 1.000000 1.000000
92 1 77.654067 198.556419 77.654067 198.556419 -0.000000 0.000000 1.000000 1.000000 1.000000
93 1 276.744346 209.971546 276.744346 209.971546 -0.000000 -0.000000 1.000000 1.000000 1.000000
94 1 224.319035 127.335854 224.319035 127.335854 0.000000 -0.000000 1.000000 1.000000 1.000000
95 1 212.211630 97.943769 212.211630 97.943769 -0.000000 -0.000000 1.000000 1.000000 1.000000
96 1 43.368108 270.924057 43.368108 -12.565524 0.000000 0.000000 1.000000 1.000000 1.000000
97 1 136.402450 44.289424 136.402450 44.289424 -0.000000 -0.000000 1.000000 1.000000 1.000000
98 1 49.603970 37.644698 49.603970 37.644698 -0.000000 -0.000000 1.000000 1.000000 1.000000
99 1 102.889571 8.059589 102.889571 291.549170 -0.000000 -0.000000 1.000000 1.000000 1.000000
100 1 51.603748 54.767812 51.603748 54.767812 -0.000000 -0.000000 1.000000 1.000000 1.000000
101 1 12.715175 216.940088 12.715175 216.940088 0.000000 -0.000000 1.000000 1.000000 1.000000
102 1 24.857356 252.581014 24.857356 252.581014 0.000000 0.000000 1.000000 1.000000 1.000000
103 1 247.652900 246.813168 247.652900 246.813168 -0.000000 0.000000 1.000000 1.000000 1.000000
104 1 49.051351 13.609057 49.051351 13.609057 0.000000 0.000000 1.000000 1.000000 1.000000
105 1 281.483064 93.986343 -2.006517 93.986343 0.000000 0.000000 1.000000 1.000000 1.000000
106 1 90.988886 137.098770 90.988886 137.098770 -0.000000 -0.000000 1.000000 1.000000 1.000000
107 1 18.158924 267.963241 301.648505 267.963241 0.000000 0.000000 1.000000 1.000000 1.000000
108 1 80.564765 240.891922 80.564765 240.891922 -0.000000 0.000000 1.000000 1.000000 1.000000
109 1 246.818642 263.784315 246.818642 263.784315 -0.000000 -0.000000 1.000000 1.000000 1.000000
110 1 247.983974 267.165941 247.983974 267.165941 0.000000 -0.000000 1.000000 1.000000 1.000000
111 1 116.721733 189.691839 116.721733 189.691839 0.000000 0.000000 1.000000 1.000000 1.000000
112 1 110.398735 221.103441 110.398735 221.103441 0.000000 0.000000 1.000000 1.000000 1.000000
113 1 77.204146 256.726496 77.204146 256.726496 -0.000000 0.000000 1.000000 1.000000 1.000000
114 1 196.603762 217.749496 196.603762 217.749496 -0.000000 -0.000000 1.000000 1.000000 1.000000
115 1 161.876899 216.832145 161.876899 216.832145 -0.000000 0.000000 1.000000 1.000000 1.000000
116 1 57.277177 269.179992 57.277177 269.179992 0.000000 -0.000000 1.000000 1.000000 1.000000
117 1 84.254640 150.789350 84.254640 150.789350 -0.000000 -0.000000 1.000000 1.000000 1.000000
118 1 227.181904 193.549863 227.181904 193.549863 -0.000000 -0.000000 1.000000 1.000000 1.000000
119 1 70.132381 66.154617 70.132381 66.154617 0.000000 0.000000 1.000000 1.000000 1.000000
120 1 4.370619 68.770478 4.370619 68.770478 -0.000000 -0.000000 1.000000 1.000000 1.000000
121 1 142.050852 211.962358 142.050852 211.962358 0.000000 -0.000000 1.000000 1.000000 1.000000
122 1 163.230727 39.941894 163.230727 39.941894 0.000000 -0.000000 1.000000 1.000000 1.000000
123 1 176.018277 8.756568 176.018277 292.246149 -0.000000 -0.000000 1.000000 1.000000 1.000000
124 1 268.662231 225.480729 268.662231 225.480729 -0.000000 -0.000000 1.000000 1.000000 1.000000
125 1 46.915899 122.142645 46.915899 122.142645 0.000000 0.000000 1.000000 1.000000 1.000000
126 1 24.485796 278.215175 24.485796 -5.274406 -0.000000 -0.000000 1.000000 1.000000 1.000000
127 1 135.062837 29.289707 135.062837 29.289707 0.000000 -0.000000 1.000000 1.000000 1.000000
128 1 172.817990 197.106549 172.817990 197.106549 -0.000000 0.000000 1.000000 1.000000 1.000000
129 1 115.366515 154.773175 115.366515 154.773175 0.000000 -0.000000 1.000000 1.000000 1.000000
130 1 136.785206 279.340634 136.785206 279.340634 0.000000 0.000000 1.000000 1.000000 1.000000
131 1 39.449884 168.370320 39.449884 168.370320 0.000000 -0.000000 1.000000 1.000000 1.000000
132 1 230.283380 227.557651 230.283380 227.557651 0.000000 -0.000000 1.000000 1.000000 1.000000
133 1 136.207991 39.076885 136.207991 39.076885 -0.000000 -0.000000 1.000000 1.000000 1.000000
134 1 203.037906 51.090180 203.037906 51.090180 0.000000 0.000000 1.000000 1.000000 1.000000
135 1 208.388420 62.589843 208.388420 62.589843 -0.000000 -0.000000 1.000000 1.000000 1.000000
136 1 71.178411 129.329040 71.178411 129.329040 -0.000000 0.000000 1.000000 1.000000 1.000000
137 1 43.210565 143.026548 43.210565 143.026548 0.000000 0.000000 1.000000 1.000000 1.000000
138 1 114.111316 40.454939 114.111316 40.454939 0.000000 -0.000000 1.000000 1.000000 1.000000
139 1 158.887942 181.521599 158.887942 181.521599 -0.000000 0.000000 1.000000 1.000000 1.000000
140 1 257.094024 41.211900 257.094024 41.211900 -0.000000 0.000000 1.000000 1.000000 1.000000
141 1 81.650295 94.900886 81.650295 94.900886 0.000000 0.000000 1.000000 1.000000 1.000000
142 1 280.308713 170.196205 -3.180868 170.196205 -0.000000 0.000000 1.000000 1.000000 1.000000
143 1 113.175653 224.752012 113.175653 224.752012 -0.000000 0.000000 1.000000 1.000000 1.000000
144 1 96.477586 32.958626 96.477586 32.958626 -0.000000 -0.000000 1.000000 1.000000 1.000000
145 1 34.377571 105.618396 34.377571 105.618396 0.000000 -0.000000 1.000000 1.000000 1.000000
146 1 55.979906 27.536484 55.979906 27.536484 -0.000000 0.000000 1.000000 1.000000 1.000000
147 1 152.249160 257.869819 152.249160 257.869819 -0.000000 -0.000000 1.000000 1.000000 1.000000
148 1 34.743821 210.665827 34.743821 210.665827 0.000000 -0.000000 1.000000 1.000000 1.000000
149 1 179.019888 78.044815 179.019888 78.044815 0.000000 0.000000 1.000000 1.000000 1.000000
150 1 200.336207 103.156639 200.336207 103.156639 0.000000 -0.000000 1.000000 1.000000 1.000000
151 1 224.922303 219.559255 224.922303 219.559255 -0.000000 0.000000 1.000000 1.000000 1.000000
152 1 143.422211 117.001239 143.422211 117.001239 -0.000000 0.000000 1.000000 1.000000 1.000000
153 1 15.436128 151.728581 15.436128 151.728581 0.000000 -0.000000 1.000000 1.000000 1.000000
154 1 72.684944 58.222424 72.684944 58.222424 0.000000 -0.000000 1.000000 1.000000 1.000000
155 1 118.706699 118.381351 118.706699 118.381351 -0.000000 0.000000 1.000000 1.000000 1.000000
156 1 138.567414 180.508916 138.567414 180.508916 -0.000000 -0.000000 1.000000 1.000000 1.000000
157 1 19.571868 93.342951 19.571868 93.342951 0.000000 0.000000 1.000000 1.000000 1.000000
158 1 5.905091 196.376816 289.394672 196.376816 -0.000000 -0.000000 1.000000 1.000000 1.000000
159 1 165.305401 91.523741 165.305401 91.523741 -0.000000 0.000000 1.000000 1.000000 1.000000
160 1 78.627191 129.456191 78.627191 129.456191 0.000000 0.000000 1.000000 1.000000 1.000000
161 1 169.600490 278.759724 169.600490 278.759724 -0.000000 0.000000 1.000000 1.000000 1.000000
162 1 215.343556 89.483550 215.343556 89.483550 0.000000 0.000000 1.000000 1.000000 1.000000
163 1 74.222712 167.084528 74.222712 167.084528 0.000000 0.000000 1.000000 1.000000 1.000000
164 1 108.449961 199.360778 108.449961 199.360778 0.000000 0.000000 1.000000 1.000000 1.000000
165 1 207.553208 201.398173 207.553208 201.398173 -0.000000 -0.000000 1.000000 1.000000 1.000000
166 1 45.849608 82.272989 45.849608 82.272989 -0.000000 -0.000000 1.000000 1.000000 1.000000
167 1 37.602973 130.511837 37.602973 130.511837 0.000000 -0.000000 1.000000 1.000000 1.000000
168 1 125.307724 236.166957 125.307724 236.166957 0.000000 0.000000 1.000000 1.000000 1.000000
169 1 115.783057 39.239629 115.783057 39.239629 0.000000 0.000000 1.000000 1.000000 1.000000
170 1 76.471218 213.178266 76.471218 213.178266 -0.000000 -0.000000 1.000000 1.000000 1.000000
171 1 130.947000 221.573634 130.947000 221.573634 0.000000 0.000000 1.000000 1.000000 1.000000
172 1 223.590433 202.508366 223.590433 202.508366 0.000000 0.000000 1.000000 1.000000 1.000000
173 1 174.617901 3.615440 174.617901 3.615440 0.000000 -0.000000 1.000000 1.000000 1.000000
174 1 19.292862 20.804340 19.292862 20.804340 0.000000 0.000000 1.000000 1.000000 1.000000
175 1 150.467425 118.684428 150.467425 118.684428 0.000000 0.000000 1.000000 1.000000 1.000000
176 1 181.332701 11.213670 181.332701 11.213670 -0.000000 0.000000 1.000000 1.000000 1.000000
177 1 3.200351 264.812862 3.200351 264.812862 -0.000000 -0.000000 1.000000 1.000000 1.000000
178 1 64.471037 244.313365 64.471037 244.313365 -0.000000 0.000000 1.000000 1.000000 1.000000
179 1 4.604832 224.201400 4.604832 224.201400 0.000000 0.000000 1.000000 1.000000 1.000000
180 1 176.036651 277.514004 176.036651 277.514004 -0.000000 -0.000000 1.000000 1.000000 1.000000
181 1 251.843651 58.641146 251.843651 58.641146 0.000000 -0.000000 1.000000 1.000000 1.000000
182 1 256.983020 259.443943 256.983020 259.443943 0.000000 0.000000 1.000000 1.000000 1.000000
183 1 259.509503 272.039231 259.509503 -11.450350 -0.000000 -0.000000 1.000000 1.000000 1.000000
184 1 141.911119 243.776072 141.911119 243.776072 0.000000 -0.000000 1.000000 1.000000 1.000000
185 1 105.300666 1.985792 105.300666 285.475373 0.000000 0.000000 1.000000 1.000000 1.000000
186 1 37.768078 99.204018 37.768078 99.204018 0.000000 0.000000 1.000000 1.000000 1.000000
187 1 189.213297 276.303414 189.213297 276.303414 0.000000 0.000000 1.000000 1.000000 1.000000
188 1 275.367513 177.012588 -8.122068 177.012588 -0.000000 0.000000 1.000000 1.000000 1.000000
189 1 209.345657 157.798871 209.345657 157.798871 0.000000 0.000000 1.000000 1.000000 1.000000
190 1 244.647746 43.126112 244.647746 43.126112 -0.000000 0.000000 1.000000 1.000000 1.000000
191 1 28.051318 81.650110 28.051318 81.650110 -0.000000 -0.000000 1.000000 1.000000 1.000000
192 1 247.577431 181.060665 247.577431 181.060665 -0.000000 -0.000000 1.000000 1.000000 1.000000
193 1 100.401414 205.918120 100.401414 205.918120 -0.000000 -0.000000 1.000000 1.000000 1.000000
194 1 113.850441 57.156789 113.850441 57.156789 0.000000 0.000000 1.000000 1.000000 1.000000
195 1 241.852577 151.451196 241.852577 151.451196 -0.000000 -0.000000 1.000000 1.000000 1.000000
196 1 231.629385 192.626006 231.629385 192.626006 0.000000 0.000000 1.000000 1.000000 1.000000
197 1 146.112332 88.575917 146.112332 88.575917 0.000000 0.000000 1.000000 1.000000 1.000000
198 1 42.922532 150.743039 42.922532 150.743039 -0.000000 -0.000000 1.000000 1.000000 1.000000
199 1 264.166785 51.618208 264.166785 51.618208 -0.000000 -0.000000 1.000000 1.000000 1.000000
200 1 237.798988 234.518536 237.798988 234.518536 0.000000 0.000000 1.000000 1.000000 1.000000
201 1 225.763639 167.175035 225.763639 167.175035 0.000000 0.000000 1.000000 1.000000 1.000000
202 1 226.671554 274.271681 226.671554 274.271681 -0.000000 -0.000000 1.000000 1.000000 1.000000
203 1 40.103083 24.727442 40.103083 24.727442 0.000000 -0.000000 1.000000 1.000000 1.000000
204 1 131.516904 134.057990 131.516904 134.057990 0.000000 -0.000000 1.000000 1.000000 1.000000
205 1 88.127000 74.330673 88.127000 74.330673 0.000000 -0.000000 1.000000 1.000000 1.000000
206 1 199.333530 63.276388 199.333530 63.276388 0.000000 -0.000000 1.000000 1.000000 1.000000
207 1 78.099961 99.702672 78.099961 99.702672 -0.000000 0.000000 1.000000 1.000000 1.000000
208 1 8.959348 245.225483 292.448929 245.225483 0.000000 -0.000000 1.000000 1.000000 1.000000
209 1 127.931199 270.081864 127.931199 -13.407717 0.000000 -0.000000 1.000000 1.000000 1.000000
210 1 43.563669 282.793036 43.563669 -0.696545 0.000000 -0.000000 1.000000 1.000000 1.000000
211 1 89.891956 216.655760 89.891956 216.655760 0.000000 -0.000000 1.000000 1.000000 1.000000
212 1 129.204570 158.693699 129.204570 158.693699 -0.000000 0.000000 1.000000 1.000000 1.000000
213 1 169.229370 190.113812 169.229370 190.113812 -0.000000 -0.000000 1.000000 1.000000 1.000000
214 1 222.359736 280.906768 222.359736 -2.582813 -0.000000 -0.000000 1.000000 1.000000 1.000000
215 1 138.491088 96.863489 138.491088 96.863489 -0.000000 0.000000 1.000000 1.000000 1.000000
216 1 12.426851 7.836306 12.426851 291.325887 0.000000 -0.000000 1.000000 1.000000 1.000000
217 1 139.420263 274.372818 139.420263 274.372818 -0.000000 0.000000 1.000000 1.000000 1.000000
218 1 89.773992 126.925562 89.773992 126.925562 0.000000 0.000000 1.000000 1.000000 1.000000
219 1 245.279694 148.708365 245.279694 148.708365 -0.000000 0.000000 1.000000 1.000000 1.000000
220 1 173.995931 165.158343 173.995931 165.158343 -0.000000 0.000000 1.000000 1.000000 1.000000
221 1 87.829574 268.206752 87.829574 268.206752 0.000000 0.000000 1.000000 1.000000 1.000000
222 1 111.352520 8.828774 111.352520 292.318355 0.000000 -0.000000 1.000000 1.000000 1.000000
223 1 178.985212 176.800942 178.985212 176.800942 0.000000 -0.000000 1.000000 1.000000 1.000000
224 1 274.379600 39.740992 -9.109981 39.740992 0.000000 0.000000 1.000000 1.000000 1.000000
225 1 91.609927 58.667428 91.609927 58.667428 -0.000000 -0.000000 1.000000 1.000000 1.000000
226 1 271.748610 197.676980 271.748610 197.676980 -0.000000 -0.000000 1.000000 1.000000 1.000000
227 1 161.186600 32.128305 161.186600 32.128305 0.000000 -0.000000 1.000000 1.000000 1.000000
228 1 0.240971 13.421450 0.240971 13.421450 -0.000000 0.000000 1.000000 1.000000 1.000000
229 1 12.795357 75.204519 12.795357 75.204519 0.000000 -0.000001 1.000000 1.000000 1.000000
230 1 102.394834 93.156267 102.394834 93.156267 0.000000 0.000000 1.000000 1.000000 1.000000
231 1 78.361223 25.520794 78.361223 25.520794 -0.000000 -0.000000 1.000000 1.000000 1.000000
232 1 30.955478 146.821061 30.955478 146.821061 0.000000 0.000000 1.000000 1.000000 1.000000
233 1 152.381140 36.631081 152.381140 36.631081 -0.000000 -0.000000 1.000000 1.000000 1.000000
234 1 172.317751 31.519092 172.317751 31.519092 -0.000000 -0.000000 1.000000 1.000000 1.000000
235 1 168.231912 60.781357 168.231912 60.781357 -0.000000 -0.000000 1.000000 1.000000 1.000000
236 1 212.540986 125.475242 212.540986 125.475242 0.000000 0.000000 1.000000 1.000000 1.000000
237 1 202.218516 194.476951 202.218516 194.476951 0.000000 -0.000000 1.000000 1.000000 1.000000
238 1 219.289458 279.146416 219.289458 279.146416 0.000000 -0.000000 1.000000 1.000000 1.000000
239 1 7.232097 199.088021 290.721678 199.088021 0.000000 0.000000 1.000000 1.000000 1.000000
240 1 98.551547 150.622921 98.551547 150.622921 0.000000 0.000000 1.000000 1.000000 1.000000
241 1 177.740056 22.712534 177.740056 22.712534 -0.000000 0.000000 1.000000 1.000000 1.000000
242 1 239.233105 139.738306 239.233105 139.738306 0.000000 0.000000 1.000000 1.000000 1.000000
243 1 13.864780 253.963551 13.864780 253.963551 0.000000 -0.000000 1.000000 1.000000 1.000000
244 1 112.379470 61.134982 112.379470 61.134982 -0.000000 0.000000 1.000000 1.000000 1.000000
245 1 55.289910 32.048269 55.289910 32.048269 0.000000 -0.000000 1.000000 1.000000 1.000000
246 1 244.553860 266.808273 244.553860 266.808273 -0.000000 0.000000 1.000000 1.000000 1.000000
247 1 283.050616 115.743998 -0.438965 115.743998 -0.000002 0.000000 1.000000 1.000000 1.000000
248 1 46.612236 85.154287 46.612236 85.154287 0.000000 -0.000000 1.000000 1.000000 1.000000
249 1 246.458809 117.792125 246.458809 117.792125 0.000000 0.000000 1.000000 1.000000 1.000000
250 1 67.174508 40.870105 67.174508 40.870105 0.000000 0.000000 1.000000 1.000000 1.000000
251 1 106.543361 158.623181 106.543361 158.623181 0.000000 -0.000000 1.000000 1.000000 1.000000
252 1 229.924457 136.933166 229.924457 136.933166 -0.000000 0.000000 1.000000 1.000000 1.000000
253 1 136.844898 234.951809 136.844898 234.951809 -0.000000 -0.000000 1.000000 1.000000 1.000000
254 1 64.524778 162.727763 64.524778 162.727763 -0.000000 -0.000000 1.000000 1.000000 1.000000
255 1 11.267265 128.632468 294.756846 128.632468 -0.000000 -0.000000 1.000000 1.000000 1.000000
256 1 116.677412 140.111008 116.677412 140.111008 0.000000 0.000000 1.000000 1.000000 1.000000
257 1 176.811996 198.145275 176.811996 198.145275 0.000000 0.000000 1.000000 1.000000 1.000000
258 1 132.343440 45.237726 132.343440 45.237726 -0.000000 -0.000000 1.000000 1.000000 1.000000
259 1 200.454485 146.319453 200.454485 146.319453 -0.000000 -0.000000 1.000000 1.000000 1.000000
260 1 267.563930 94.265306 267.563930 94.265306 0.000000 -0.000000 1.000000 1.000000 1.000000
261 1 19.884948 261.905124 19.884948 261.905124 -0.000000 -0.000000 1.000000 1.000000 1.000000
262 1 242.903412 252.663225 242.903412 252.663225 -0.000000 -0.000000 1.000000 1.000000 1.000000
263 1 131.491970 96.506039 131.491970 96.506039 0.000000 -0.000000 1.000000 1.000000 1.000000
264 1 280.121377 269.987716 280.121377 269.987716 -0.000000 -0.000000 1.000000 1.000000 1.000000
265 1 252.837389 82.437556 252.837389 82.437556 -0.000000 0.000000 1.000000 1.000000 1.000000
266 1 135.833826 121.720085 135.833826 121.720085 -0.000000 0.000000 1.000000 1.000000 1.000000
267 1 8.460720 22.613900 8.460720 22.613900 -0.000000 -0.000000 1.000000 1.000000 1.000000
268 1 57.860485 203.893050 57.860485 203.893050 -0.000000 0.000000 1.000000 1.000000 1.000000
269 1 270.123083 101.600063 270.123083 101.600063 0.000000 0.000000 1.000000 1.000000 1.000000
270 1 82.420488 120.587551 82.420488 120.587551 0.000000 -0.000000 1.000000 1.000000 1.000000
271 1 160.061690 211.019669 160.061690 211.019669 -0.000000 -0.000000 1.000000 1.000000 1.000000
272 1 48.538841 129.964020 48.538841 129.964020 0.000000 0.000000 1.000000 1.000000 1.000000
273 1 144.526521 37.001761 144.526521 37.001761 0.000000 -0.000000 1.000000 1.000000 1.000000
274 1 38.715636 267.968710 38.715636 267.968710 -0.000000 0.000000 1.000000 1.000000 1.000000
275 1 174.906779 228.407013 174.906779 228.407013 -0.000000 -0.000000 1.000000 1.000000 1.000000
276 1 138.664120 85.824665 138.664120 85.824665 -0.000000 0.000000 1.000000 1.000000 1.000000
277 1 282.330571 73.668404 282.330571 73.668404 -0.000000 -0.000000 1.000000 1.000000 1.000000
278 1 81.083654 266.320577 81.083654 266.320577 0.000000 -0.000000 1.000000 1.000000 1.000000
279 1 121.083609 264.993784 121.083609 264.993784 0.000000 -0.000000 1.000000 1.000000 1.000000
280 1 281.486689 188.006537 281.486689 188.006537 -0.000000 0.000000 1.000000 1.000000 1.000000
281 1 30.891654 247.972103 30.891654 247.972103 0.000000 0.000000 1.000000 1.000000 1.000000
282 1 260.586379 74.312876 260.586379 74.312876 -0.000000 -0.000000 1.000000 1.000000 1.000000
283 1 4.724923 56.919245 4.724923 56.919245 0.000000 0.000000 1.000000 1.000000 1.000000
284 1 242.162459 5.901761 242.162459 5.901761 -0.000000 -0.000000 1.000000 1.000000 1.000000
285 1 275.625919 111.409863 275.625919 111.409863 0.000000 0.000000 1.000000 1.000000 1.000000
286 1 135.920613 130.308929 135.920613 130.308929 -0.000000 -0.000000 1.000000 1.000000 1.000000
287 1 62.855003 159.479168 62.855003 159.479168 -0.000000 -0.000000 1.000000 1.000000 1.000000
288 1 88.442945 185.170143 88.442945 185.170143 -0.000000 -0.000000 1.000000 1.000000 1.000000
289 1 277.970551 16.200010 -5.519030 16.200010 -0.000000 0.000000 1.000000 1.000000 1.000000
290 1 67.585789 15.908708 67.585789 15.908708 -0.000000 0.000000 1.000000 1.000000 1.000000
291 1 259.280776 200.177084 259.280776 200.177084 -0.000000 -0.000000 1.000000 1.000000 1.000000
292 1 153.141451 144.314972 153.141451 144.314972 -0.000000 0.000000 1.000000 1.000000 1.000000
293 1 180.774029 120.445566 180.774029 120.445566 0.000000 0.000000 1.000000 1.000000 1.000000
294 1 247.659774 39.967312 247.659774 39.967312 0.000000 -0.000000 1.000000 1.000000 1.000000
295 1 212.852555 277.529442 212.852555 -5.960139 -0.000000 -0.000000 1.000000 1.000000 1.000000
296 1 26.388143 134.479607 26.388143 134.479607 0.000000 -0.000000 1.000000 1.000000 1.000000
297 1 159.730881 207.726456 159.730881 207.726456 -0.000000 -0.000000 1.000000 1.000000 1.000000
298 1 137.541270 158.598090 137.541270 158.598090 -0.000000 0.000000 1.000000 1.000000 1.000000
299 1 57.680454 242.859289 57.680454 242.859289 -0.000000 -0.000000 1.000000 1.000000 1.000000
300 1 6.592488 112.435567 6.592488 112.435567 -0.000000 -0.000000 1.000000 1.000000 1.000000
301 1 136.278723 193.750095 136.278723 193.750095 0.000000 -0.000000 1.000000 1.000000 1.000000
302 1 118.589694 4.948954 118.589694 4.948954 0.000000 -0.000000 1.000000 1.000000 1.000000
303 1 282.778411 107.658421 282.778411 107.658421 -0.000000 -0.000000 1.000000 1.000000 1.000000
304 1 262.087305 46.552360 262.087305 46.552360 0.000000 -0.000000 1.000000 1.000000 1.000000
305 1 257.807388 123.855039 257.807388 123.855039 -0.000000 0.000000 1.000000 1.000000 1.000000
306 1 131.430200 68.274168 131.430200 68.274168 0.000000 0.000000 1.000000 1.000000 1.000000
307 1 221.767290 197.340790 221.767290 197.340790 -0.000000 0.000000 1.000000 1.000000 1.000000
308 1 249.003519 259.946340 249.003519 259.946340 -0.000000 -0.000000 1.000000 1.000000 1.000000
309 1 21.219518 6.475831 21.219518 6.475831 0.000000 0.000000 1.000000 1.000000 1.000000
310 1 138.642191 267.334480 138.642191 267.334480 0.000000 0.000000 1.000000 1.000000 1.000000
311 1 267.021135 209.975209 -16.468446 209.975209 0.000000 -0.000000 1.000000 1.000000 1.000000
312 1 12.189130 173.771623 12.189130 173.771623 -0.000000 0.000000 1.000000 1.000000 1.000000
313 1 28.856537 114.000059 28.856537 114.000059 -0.000000 0.000000 1.000000 1.000000 1.000000
314 1 192.655575 179.129057 192.655575 179.129057 -0.000000 -0.000000 1.000000 1.000000 1.000000
315 1 5.824021 3.150196 5.824021 286.639777 -0.000000 0.000000 1.000000 1.000000 1.000000