ITEM: TIMESTEP
1400.000000
ITEM: NUMBER OF ATOMS
5000
ITEM: BOX BOUNDS xy xz yz
0 253.757544 0
0 253.757544 0
0 2 0
ITEM: ATOMS id type x y xu yu vx vy radius m z
0 1 152.467679 78.210135 152.467679 78.210135 0.000000 0.000000 1.000000 1.000000 1.000000
1 1 203.049376 31.451987 203.049376 31.451987 0.000000 -0.000000 1.000000 1.000000 1.000000
2 1 126.756302 128.192706 126.756302 128.192706 0.000000 0.000000 1.000000 1.000000 1.000000
3 1 190.208830 154.948200 190.208830 154.948200 -0.000000 0.000000 1.000000 1.000000 1.000000
4 1 72.575730 227.523867 72.575730 227.523867 0.000000 0.000000 1.000000 1.000000 1.000000
5 1 86.723311 66.271144 86.723311 66.271144 0.000000 -0.000000 1.000000 1.000000 1.000000
6 1 225.423083 126.584134 225.423083 126.584134 -0.000000 -0.000000 1.000000 1.000000 1.000000
7 1 243.613368 48.939228 243.613368 48.939228 -0.000000 0.000000 1.000000 1.000000 1.000000
8 1 190.882954 89.518791 190.882954 89.518791 -0.000000 -0.000000 1.000000 1.000000 1.000000
9 1 94.493820 199.865280 94.493820 199.865280 0.000000 0.000000 1.000000 1.000000 1.000000
10 1 115.740701 205.810493 115.740701 205.810493 -0.000000 0.000000 1.000000 1.000000 1.000000
11 1 201.231933 169.678926 201.231933 169.678926 0.000000 -0.000000 1.000000 1.000000 1.000000
12 1 107.648752 245.057423 107.648752 -8.700121 -0.000000 -0.000000 1.000000 1.000000 1.000000
13 1 50.550738 248.336716 50.550738 248.336716 0.000000 -0.000000 1.000000 1.000000 1.000000
14 1 82.767983 178.236203 82.767983 178.236203 -0.000000 -0.000000 1.000000 1.000000 1.000000
15 1 200.333737 78.037211 200.333737 78.037211 -0.000000 0.000000 1.000000 1.000000 1.000000
16 1 91.408924 128.791969 91.408924 128.791969 -0.000000 0.000000 1.000000 1.000000 1.000000
17 1 82.844647 198.304423 82.844647 198.304423 0.000000 -0.000000 1.000000 1.000000 1.000000
18 1 126.271430 58.869950 126.271430 58.869950 0.000000 0.000000 1.000000 1.000000 1.000000
19 1 86.425534 86.828314 86.425534 86.828314 0.000000 0.000000 1.000000 1.000000 1.000000
20 1 41.828608 66.756798 41.828608 66.756798 0.000000 -0.000000 1.000000 1.000000 1.000000
21 1 220.000782 180.261292 220.000782 180.261292 -0.000000 -0.000000 1.000000 1.000000 1.000000
22 1 192.490510 87.879651 192.490510 87.879651 0.000000 -0.000000 1.000000 1.000000 1.000000
23 1 13.602115 4.929550 13.602115 4.929550 -0.000000 0.000000 1.000000 1.000000 1.000000
24 1 197.041434 147.018837 197.041434 147.018837 -0.000000 -0.000000 1.000000 1.000000 1.000000
25 1 210.471285 216.370037 210.471285 216.370037 -0.000000 0.000000 1.000000 1.000000 1.000000
26 1 155.911920 217.794733 155.911920 217.794733 -0.000000 -0.000000 1.000000 1.000000 1.000000
27 1 159.176217 32.003485 159.176217 32.003485 0.000000 0.000000 1.000000 1.000000 1.000000
28 1 159.430747 223.842178 159.430747 223.842178 0.000000 0.000000 1.000000 1.000000 1.000000
29 1 231.753426 228.474887 -22.004118 228.474887 0.000000 -0.000000 1.000000 1.000000 1.000000
30 1 168.604112 70.928401 168.604112 70.928401 -0.000000 0.000000 1.000000 1.000000 1.000000
31 1 167.267692 61.125826 167.267692 61.125826 -0.000000 -0.000000 1.000000 1.000000 1.000000
32 1 140.799904 171.200076 140.799904 171.200076 -0.000000 0.000000 1.000000 1.000000 1.000000
33 1 46.695263 192.257827 46.695263 192.257827 -0.000000 0.000000 1.000000 1.000000 1.000000
34 1 37.791720 18.061738 37.791720 18.061738 -0.000000 -0.000000 1.000000 1.000000 1.000000
35 1 156.922792 190.024089 156.922792 190.024089 0.000000 0.000000 1.000000 1.000000 1.000000
36 1 235.204409 218.925996 235.204409 218.925996 -0.000000 0.000000 1.000000 1.000000 1.000000
37 1 186.083757 70.744975 186.083757 70.744975 -0.000000 -0.000000 1.000000 1.000000 1.000000
38 1 192.121959 120.647408 192.121959 120.647408 0.000000 0.000000 1.000000 1.000000 1.000000
39 1 80.569906 193.483197 80.569906 193.483197 0.000000 0.000000 1.000000 1.000000 1.000000
40 1 244.555833 108.058122 244.555833 108.058122 -0.000000 -0.000000 1.000000 1.000000 1.000000
41 1 13.834443 104.318707 13.834443 104.318707 -0.000000 0.000000 1.000000 1.000000 1.000000
42 1 149.551218 245.669602 149.551218 -8.087942 0.000000 0.000000 1.000000 1.000000 1.000000
43 1 128.799726 115.557319 128.799726 115.557319 -0.000000 -0.000000 1.000000 1.000000 1.000000
44 1 105.203182 133.279486 105.203182 133.279486 -0.000000 -0.000000 1.000000 1.000000 1.000000
45 1 37.893606 130.312603 37.893606 130.312603 -0.000000 -0.000000 1.000000 1.000000 1.000000
46 1 120.859536 195.458285 120.859536 195.458285 0.000000 0.000000 1.000000 1.000000 1.000000
47 1 58.771409 218.896787 58.771409 218.896787 -0.000000 0.000000 1.000000 1.000000 1.000000
48 1 23.877143 250.904481 23.877143 -2.853063 -0.000000 0.000000 1.000000 1.000000 1.000000
49 1 201.321924 230.425996 201.321924 230.425996 -0.000000 -0.000000 1.000000 1.000000 1.000000
50 1 161.777624 118.899387 161.777624 118.899387 -0.000000 -0.000000 1.000000 1.000000 1.000000
51 1 234.976811 208.927886 234.976811 208.927886 0.000000 0.000000 1.000000 1.000000 1.000000
52 1 105.809730 12.696773 105.809730 12.696773 0.000000 -0.000000 1.000000 1.000000 1.000000
53 1 80.971328 108.662915 80.971328 108.662915 0.000000 -0.000000 1.000000 1.000000 1.000000
54 1 136.428988 90.936293 136.428988 90.936293 0.000000 -0.000000 1.000000 1.000000 1.000000
55 1 211.869513 149.275561 211.869513 149.275561 0.000000 0.000000 1.000000 1.000000 1.000000
56 1 223.359552 50.380741 223.359552 50.380741 -0.000000 -0.000000 1.000000 1.000000 1.000000
57 1 175.756225 87.627720 175.756225 87.627720 -0.000000 -0.000000 1.000000 1.000000 1.000000
58 1 47.185085 210.646643 47.185085 210.646643 -0.000000 0.000000 1.000000 1.000000 1.000000
59 1 185.100085 113.039208 185.100085 113.039208 0.000000 0.000000 1.000000 1.000000 1.000000
60 1 112.834815 224.076787 112.834815 224.076787 -0.000000 -0.000000 1.000000 1.000000 1.000000
61 1 215.455785 140.140931 215.455785 140.140931 -0.000000 -0.000000 1.000000 1.000000 1.000000
62 1 183.536680 239.577350 183.536680 239.577350 0.000000 -0.000000 1.000000 1.000000 1.000000
63 1 84.883977 197.467679 84.883977 197.467679 -0.000000 -0.000000 1.000000 1.000000 1.000000
64 1 66.108375 94.319357 66.108375 94.319357 0.000000 -0.000000 1.000000 1.000000 1.000000
65 1 41.044737 45.263817 41.044737 45.263817 0.000000 0.000000 1.000000 1.000000 1.000000
66 1 225.763134 237.215578 225.763134 237.215578 0.000000 -0.000000 1.000000 1.000000 1.000000
67 1 86.375898 167.167567 86.375898 167.167567 -0.000000 0.000000 1.000000 1.000000 1.000000
68 1 84.870402 17.650290 84.870402 17.650290 -0.000000 0.000000 1.000000 1.000000 1.000000
69 1 70.005042 230.224521 70.005042 230.224521 0.000000 -0.000000 1.000000 1.000000 1.000000
70 1 201.984141 26.725832 201.984141 26.725832 -0.000000 0.000000 1.000000 1.000000 1.000000
71 1 157.617791 60.569708 157.617791 60.569708 0.000000 0.000000 1.000000 1.000000 1.000000
72 1 237.042592 41.361430 237.042592 41.361430 0.000000 0.000000 1.000000 1.000000 1.000000
73 1 119.052255 209.552160 119.052255 209.552160 -0.000000 0.000000 1.000000 1.000000 1.000000
74 1 15.523795 27.164475 15.523795 27.164475 -0.000000 0.000000 1.000000 1.000000 1.000000
75 1 180.578286 35.867629 180.578286 35.867629 -0.000000 0.000000 1.000000 1.000000 1.000000
76 1 27.163007 26.383216 27.163007 26.383216 0.000000 -0.000000 1.000000 1.000000 1.000000
77 1 177.849117 182.967074 177.849117 182.967074 0.000000 0.000000 1.000000 1.000000 1.000000
78 1 75.234403 66.178606 75.234403 66.178606 0.000000 -0.000000 1.000000 1.000000 1.000000
79 1 35.772586 126.339797 35.772586 126.339797 0.000000 0.000000 1.000000 1.000000 1.000000
80 1 80.696829 146.053841 80.696829 146.053841 -0.000000 -0.000000 1.000000 1.000000 1.000000
81 1 98.747065 220.348488 98.747065 220.348488 0.000000 0.000000 1.000000 1.000000 1.000000
82 1 121.367040 141.746005 121.367040 141.746005 -0.000000 -0.000000 1.000000 1.000000 1.000000
83 1 220.500875 142.109673 220.500875 142.109673 0.000000 -0.000000 1.000000 1.000000 1.000000
84 1 125.507932 35.665834 125.507932 35.665834 0.000000 0.000000 1.000000 1.000000 1.000000
85 1 188.443868 180.934919 188.443868 180.934919 0.000000 0.000000 1.000000 1.000000 1.000000
86 1 135.265248 198.253072 135.265248 198.253072 -0.000000 -0.000000 1.000000 1.000000 1.000000
87 1 185.915229 177.070122 185.915229 177.070122 -0.000000 0.000000 1.000000 1.000000 1.000000
88 1 227.616571 181.868298 227.616571 181.868298 -0.000000 -0.000000 1.000000 1.000000 1.000000
89 1 37.369938 159.793639 37.369938 159.793639 0.000000 -0.000000 1.000000 1.000000 1.000000
90 1 213.756104 9.257726 213.756104 9.257726 0.000000 -0.000000 1.000000 1.000000 1.000000
91 1 206.643774 45.465589 206.643774 45.465589 0.000000 -0.000000 1.000000 1.000000 1.000000
92 1 219.196997 85.167213 219.196997 85.167213 0.000000 0.000001 1.000000 1.000000 1.000000
93 1 226.387489 220.112114 226.387489 220.112114 -0.000000 0.000000 1.000000 1.000000 1.000000
94 1 49.792115 110.661260 49.792115 110.661260 0.000000 -0.000000 1.000000 1.000000 1.000000
95 1 149.035113 65.084592 149.035113 65.084592 0.000000 0.000000 1.000000 1.000000 1.000000
96 1 9.960780 211.841058 263.718324 211.841058 0.000000 0.000000 1.000000 1.000000 1.000000
97 1 34.597510 19.695102 34.597510 19.695102 0.000000 0.000000 1.000000 1.000000 1.000000
98 1 43.865621 239.041204 43.865621 239.041204 -0.000000 0.000000 1.000000 1.000000 1.000000
99 1 91.699822 82.818358 91.699822 82.818358 0.000000 -0.000000 1.000000 1.000000 1.000000
100 1 230.867678 218.593699 230.867678 218.593699 -0.000000 -0.000000 1.000000 1.000000 1.000000
101 1 18.940621 214.101744 18.940621 214.101744 0.000000 -0.000000 1.000000 1.000000 1.000000
102 1 213.143849 11.851363 213.143849 11.851363 -0.000000 0.000000 1.000000 1.000000 1.000000
103 1 202.945919 244.669798 202.945919 244.669798 0.000000 0.000000 1.000000 1.000000 1.000000
104 1 0.624489 132.799198 254.382033 132.799198 -0.000000 -0.000000 1.000000 1.000000 1.000000
105 1 189.956887 61.618343 189.956887 61.618343 0.000000 0.000000 1.000000 1.000000 1.000000
106 1 100.623263 199.457496 100.623263 199.457496 0.000000 -0.000000 1.000000 1.000000 1.000000
107 1 210.643203 46.576482 210.643203 46.576482 -0.000000 0.000000 1.000000 1.000000 1.000000
108 1 33.928653 104.125308 33.928653 104.125308 -0.000000 -0.000000 1.000000 1.000000 1.000000
109 1 96.275213 232.080871 96.275213 232.080871 -0.000000 -0.000000 1.000000 1.000000 1.000000
110 1 209.064332 126.543049 209.064332 126.543049 -0.000000 -0.000000 1.000000 1.000000 1.000000
111 1 22.127030 193.667927 22.127030 193.667927 0.000000 -0.000000 1.000000 1.000000 1.000000
112 1 233.487339 29.334272 233.487339 29.334272 0.000000 0.000000 1.000000 1.000000 1.000000
113 1 101.530294 224.023373 101.530294 224.023373 -0.000000 0.000000 1.000000 1.000000 1.000000
114 1 207.838432 227.339636 207.838432 227.339636 -0.000000 -0.000000 1.000000 1.000000 1.000000
115 1 227.775292 152.410651 227.775292 152.410651 0.000000 -0.000000 1.000000 1.000000 1.000000
116 1 122.282647 114.890135 122.282647 114.890135 0.000000 0.000000 1.000000 1.000000 1.000000
117 1 85.202779 29.702934 85.202779 29.702934 0.000000 -0.000000 1.000000 1.000000 1.000000
118 1 232.910002 174.701303 232.910002 174.701303 0.000000 0.000000 1.000000 1.000000 1.000000
119 1 179.939049 150.829101 179.939049 150.829101 0.000000 -0.000000 1.000000 1.000000 1.000000
120 1 163.278908 184.465761 163.278908 184.465761 -0.000000 -0.000000 1.000000 1.000000 1.000000
121 1 1.905955 235.722867 255.663499 235.722867 0.000000 0.000000 1.000000 1.000000 1.000000
122 1 37.635685 149.871992 37.635685 149.871992 0.000000 0.000000 1.000000 1.000000 1.000000
123 1 164.263357 181.310995 164.263357 181.310995 0.000000 -0.000000 1.000000 1.000000 1.000000
124 1 248.146516 198.316834 248.146516 198.316834 -0.000000 -0.000000 1.000000 1.000000 1.000000
125 1 181.432755 189.337451 181.432755 189.337451 0.000000 0.000000 1.000000 1.000000 1.000000
126 1 193.068299 83.848591 193.068299 83.848591 -0.000000 -0.000000 1.000000 1.000000 1.000000
127 1 110.716453 83.710827 110.716453 83.710827 0.000000 -0.000000 1.000000 1.000000 1.000000
128 1 207.720218 166.373310 207.720218 166.373310 -0.000000 -0.000000 1.000000 1.000000 1.000000
129 1 64.229429 174.141857 64.229429 174.141857 -0.000000 0.000000 1.000000 1.000000 1.000000
130 1 215.140383 171.438676 215.140383 171.438676 -0.000000 -0.000000 1.000000 1.000000 1.000000
131 1 157.595610 2.669442 157.595610 2.669442 -0.000000 -0.000000 1.000000 1.000000 1.000000
132 1 87.289463 199.080448 87.289463 199.080448 0.000000 -0.000000 1.000000 1.000000 1.000000
133 1 175.840589 156.718587 175.840589 156.718587 -0.000000 -0.000000 1.000000 1.000000 1.000000
134 1 18.977921 205.567878 18.977921 205.567878 -0.000000 -0.000000 1.000000 1.000000 1.000000
135 1 28.963370 218.708390 28.963370 218.708390 -0.000000 -0.000000 1.000000 1.000000 1.000000
136 1 108.883335 193.487476 108.883335 193.487476 -0.000000 0.000000 1.000000 1.000000 1.000000
137 1 119.610979 28.627801 119.610979 28.627801 -0.000000 0.000000 1.000000 1.000000 1.000000
138 1 93.832424 166.657710 93.832424 166.657710 0.000000 -0.000000 1.000000 1.000000 1.000000
139 1 6.966064 112.317840 6.966064 112.317840 0.000000 0.000000 1.000000 1.000000 1.000000
140 1 83.837763 9.095765 83.837763 9.095765 -0.000000 0.000000 1.000000 1.000000 1.000000
141 1 189.084438 19.357713 189.084438 19.357713 0.000000 0.000000 1.000000 1.000000 1.000000
142 1 61.394622 139.506966 61.394622 139.506966 -0.000000 0.000000 1.000000 1.000000 1.000000
143 1 235.660780 245.763390 235.660780 245.763390 0.000000 0.000000 1.000000 1.000000 1.000000
144 1 159.216895 25.231519 159.216895 25.231519 0.000000 -0.000000 1.000000 1.000000 1.000000
145 1 46.356326 19.403710 46.356326 19.403710 -0.000000 0.000000 1.000000 1.000000 1.000000
146 1 56.377772 18.279807 56.377772 18.279807 -0.000000 0.000000 1.000000 1.000000 1.000000
147 1 126.886221 74.866656 126.886221 74.866656 0.000000 0.000000 1.000000 1.000000 1.000000
148 1 86.954571 160.332002 86.954571 160.332002 -0.000000 -0.000000 1.000000 1.000000 1.000000
149 1 244.827572 132.217297 -8.929972 132.217297 0.000000 -0.000000 1.000000 1.000000 1.000000
150 1 166.524424 149.084780 166.524424 149.084780 -0.000000 0.000000 1.000000 1.000000 1.000000
151 1 68.314068 145.282038 68.314068 145.282038 0.000000 -0.000000 1.000000 1.000000 1.000000
152 1 205.299436 95.885194 205.299436 95.885194 0.000000 -0.000000 1.000000 1.000000 1.000000
153 1 31.676118 22.275814 31.676118 22.275814 -0.000000 0.000000 1.000000 1.000000 1.000000
154 1 123.224235 143.269383 123.224235 143.269383 -0.000000 0.000000 1.000000 1.000000 1.000000
155 1 172.376302 111.083371 172.376302 111.083371 0.000000 0.000000 1.000000 1.000000 1.000000
156 1 162.188338 181.785896 162.188338 181.785896 0.000000 0.000000 1.000000 1.000000 1.000000
157 1 188.317007 149.545280 188.317007 149.545280 0.000000 0.000000 1.000000 1.000000 1.000000
158 1 239.061040 126.526886 239.061040 126.526886 0.000000 -0.000000 1.000000 1.000000 1.000000
159 1 4.980665 178.908986 258.738209 178.908986 -0.000000 -0.000000 1.000000 1.000000 1.000000
160 1 71.201430 154.358791 71.201430 154.358791 0.000000 -0.000000 1.000000 1.000000 1.000000
161 1 233.769189 216.918357 233.769189 216.918357 -0.000000 0.000000 1.000000 1.000000 1.000000
162 1 45.404740 12.837551 45.404740 12.837551 -0.000000 -0.000000 1.000000 1.000000 1.000000
163 1 213.210995 242.754078 213.210995 242.754078 -0.000000 -0.000000 1.000000 1.000000 1.000000
164 1 14.333123 102.008974 14.333123 102.008974 0.000000 0.000000 1.000000 1.000000 1.000000
165 1 124.459643 221.363092 124.459643 221.363092 0.000000 0.000000 1.000000 1.000000 1.000000
166 1 177.717686 126.937359 177.717686 126.937359 0.000000 0.000000 1.000000 1.000000 1.000000
167 1 122.581478 34.409569 122.581478 34.409569 0.000000 -0.000000 1.000000 1.000000 1.000000
168 1 127.495452 22.367354 127.495452 22.367354 0.000000 -0.000000 1.000000 1.000000 1.000000
169 1 89.467860 184.755907 89.467860 184.755907 -0.000000 -0.000000 1.000000 1.000000 1.000000
170 1 1.772538 199.720775 1.772538 199.720775 0.000000 0.000000 1.000000 1.000000 1.000000
171 1 107.249331 231.200547 107.249331 231.200547 -0.000000 -0.000000 1.000000 1.000000 1.000000
172 1 212.066552 136.558462 212.066552 136.558462 0.000000 -0.000000 1.000000 1.000000 1.000000
173 1 70.749770 185.261275 70.749770 185.261275 -0.000000 0.000000 1.000000 1.000000 1.000000
174 1 130.841878 80.632879 130.841878 80.632879 0.000000 -0.000000 1.000000 1.000000 1.000000
175 1 24.198978 166.914162 24.198978 166.914162 -0.000000 -0.000000 1.000000 1.000000 1.000000
176 1 242.653623 71.303424 242.653623 71.303424 0.000000 -0.000000 1.000000 1.000000 1.000000
177 1 128.845098 180.352192 128.845098 180.352192 0.000000 -0.000000 1.000000 1.000000 1.000000
178 1 190.995473 1.089904 190.995473 254.847448 0.000000 0.000000 1.000000 1.000000 1.000000
179 1 157.591765 222.838524 157.591765 222.838524 0.000000 0.000000 1.000000 1.000000 1.000000
180 1 25.706005 251.914168 25.706005 251.914168 0.000000 0.000000 1.000000 1.000000 1.000000
181 1 186.627635 120.399330 186.627635 120.399330 0.000000 0.000000 1.000000 1.000000 1.000000
182 1 176.780366 26.350092 176.780366 26.350092 -0.000000 0.000000 1.000000 1.000000 1.000000
183 1 168.065282 29.208574 168.065282 29.208574 0.000000 0.000000 1.000000 1.000000 1.000000
184 1 60.181528 238.848854 60.181528 238.848854 -0.000000 -0.000000 1.000000 1.000000 1.000000
185 1 229.848215 179.710481 229.848215 179.710481 -0.000000 -0.000000 1.000000 1.000000 1.000000
186 1 17.347652 28.823804 17.347652 28.823804 0.000000 0.000000 1.000000 1.000000 1.000000
187 1 226.161652 106.494917 226.161652 106.494917 -0.000000 0.000000 1.000000 1.000000 1.000000
188 1 165.386736 112.753416 165.386736 112.753416 -0.000000 0.000000 1.000000 1.000000 1.000000
189 1 109.777047 247.239081 109.777047 -6.518463 -0.000000 -0.000000 1.000000 1.000000 1.000000
190 1 72.230086 73.208843 72.230086 73.208843 0.000000 0.000000 1.000000 1.000000 1.000000
191 1 199.580524 229.363692 199.580524 229.363692 -0.000000 0.000000 1.000000 1.000000 1.000000
192 1 16.107750 1.826884 16.107750 1.826884 0.000000 -0.000000 1.000000 1.000000 1.000000
193 1 9.992621 230.099122 9.992621 230.099122 0.000000 0.000000 1.000000 1.000000 1.000000
194 1 192.194757 54.103115 192.194757 54.103115 0.000000 -0.000000 1.000000 1.000000 1.000000
195 1 107.775409 153.312157 107.775409 153.312157 -0.000000 0.000000 1.000000 1.000000 1.000000
196 1 147.069061 20.885517 147.069061 20.885517 -0.000000 0.000000 1.000000 1.000000 1.000000
197 1 91.552573 135.515463 91.552573 135.515463 0.000000 0.000000 1.000000 1.000000 1.000000
198 1 91.807039 6.119974 91.807039 6.119974 -0.000000 -0.000000 1.000000 1.000000 1.000000
199 1 194.034094 97.047595 194.034094 97.047595 -0.000000 -0.000000 1.000000 1.000000 1.000000
200 1 207.048028 100.298763 207.048028 100.298763 -0.000000 0.000000 1.000000 1.000000 1.000000
201 1 198.070004 31.378314 198.070004 31.378314 -0.000000 0.000000 1.000000 1.000000 1.000000
202 1 125.413620 152.000538 125.413620 152.000538 0.000000 0.000000 1.000000 1.000000 1.000000
203 1 111.333977 125.783800 111.333977 125.783800 0.000000 0.000000 1.000000 1.000000 1.000000
204 1 194.473459 77.006866 194.473459 77.006866 0.000000 -0.000000 1.000000 1.000000 1.000000
205 1 189.485583 242.499411 189.485583 242.499411 0.000000 -0.000000 1.000000 1.000000 1.000000
206 1 0.590832 224.222038 254.348376 224.222038 0.000000 0.000000 1.000000 1.000000 1.000000
207 1 104.950183 185.391394 104.950183 185.391394 -0.000000 0.000000 1.000000 1.000000 1.000000
208 1 62.041446 47.695216 62.041446 47.695216 0.000000 0.000000 1.000000 1.000000 1.000000
209 1 76.111204 229.684977 76.111204 229.684977 0.000000 -0.000000 1.000000 1.000000 1.000000
210 1 238.035045 246.331260 238.035045 246.331260 -0.000000 -0.000000 1.000000 1.000000 1.000000
211 1 201.601587 208.711063 201.601587 208.711063 0.000000 -0.000000 1.000000 1.000000 1.000000
212 1 125.393550 231.414556 125.393550 231.414556 0.000000 -0.000000 1.000000 1.000000 1.000000
213 1 136.006553 177.223000 136.006553 177.223000 0.000000 -0.000000 1.000000 1.000000 1.000000
214 1 86.778643 36.146970 86.778643 36.146970 0.000000 -0.000000 1.000000 1.000000 1.000000
215 1 204.849266 39.321389 204.849266 39.321389 0.000000 0.000000 1.000000 1.000000 1.000000
216 1 232.278614 113.303295 232.278614 113.303295 0.000000 0.000000 1.000000 1.000000 1.000000
217 1 252.921897 114.509220 252.921897 114.509220 0.000000 0.000000 1.000000 1.000000 1.000000
218 1 203.493230 88.704078 203.493230 88.704078 -0.000000 -0.000000 1.000000 1.000000 1.000000
219 1 197.492479 81.495238 197.492479 81.495238 0.000000 -0.000000 1.000000 1.000000 1.000000
220 1 13.993539 7.957126 267.751083 7.957126 0.000000 -0.000000 1.000000 1.000000 1.000000
221 1 5.418763 183.862866 5.418763 183.862866 0.000000 -0.000000 1.000000 1.000000 1.000000
222 1 171.664701 44.771434 171.664701 44.771434 -0.000000 -0.000000 1.000000 1.000000 1.000000
223 1 8.127655 15.450035 8.127655 15.450035 0.000000 -0.000000 1.000000 1.000000 1.000000
224 1 131.158689 229.934200 131.158689 229.934200 0.000000 -0.000000 1.000000 1.000000 1.000000
225 1 162.399910 122.978975 162.399910 122.978975 -0.000000 0.000000 1.000000 1.000000 1.000000
226 1 94.226643 4.409485 94.226643 4.409485 0.000000 0.000000 1.000000 1.000000 1.000000
227 1 30.875783 73.253541 30.875783 73.253541 -0.000000 0.000000 1.000000 1.000000 1.000000
228 1 74.938097 125.035522 74.938097 125.035522 0.000000 -0.000000 1.000000 1.000000 1.000000
229 1 109.042148 137.007798 109.042148 137.007798 0.000000 0.000000 1.000000 1.000000 1.000000
230 1 176.213588 146.505829 176.213588 146.505829 -0.000000 -0.000000 1.000000 1.000000 1.000000
231 1 79.763916 19.762879 79.763916 19.762879 -0.000000 0.000000 1.000000 1.000000 1.000000
232 1 65.567362 116.491318 65.567362 116.491318 -0.000000 0.000000 1.000000 1.000000 1.000000
233 1 96.698016 89.949310 96.698016 89.949310 0.000000 0.000000 1.000000 1.000000 1.000000
234 1 158.461628 165.401438 158.461628 165.401438 0.000000 -0.000000 1.000000 1.000000 1.000000
235 1 158.648990 213.521576 158.648990 213.521576 -0.000000 0.000000 1.000000 1.000000 1.000000
236 1 75.666277 205.864709 75.666277 205.864709 -0.000000 0.000000 1.000000 1.000000 1.000000
237 1 52.931148 113.907002 52.931148 113.907002 -0.000000 -0.000000 1.000000 1.000000 1.000000
238 1 159.267137 250.052830 159.267137 250.052830 -0.000000 -0.000000 1.000000 1.000000 1.000000
239 1 176.795814 216.552448 176.795814 216.552448 -0.000000 0.000000 1.000000 1.000000 1.000000
240 1 95.892587 108.477404 95.892587 108.477404 -0.000000 0.000000 1.000000 1.000000 1.000000
241 1 245.910880 64.190565 245.910880 64.190565 0.000000 -0.000000 1.000000 1.000000 1.000000
242 1 51.003009 165.136779 51.003009 165.136779 -0.000000 -0.000000 1.000000 1.000000 1.000000
243 1 231.379722 75.189632 231.379722 75.189632 0.000000 -0.000000 1.000000 1.000000 1.000000
244 1 218.507576 233.387333 218.507576 233.387333 0.000000 -0.000000 1.000000 1.000000 1.000000
245 1 125.811897 133.082372 125.811897 133.082372 0.000000 0.000000 1.000000 1.000000 1.000000
246 1 172.819272 235.563500 172.819272 235.563500 -0.000000 0.000000 1.000000 1.000000 1.000000
247 1 159.175248 240.671408 159.175248 240.671408 -0.000000 0.000000 1.000000 1.000000 1.000000
248 1 127.824604 138.839255 127.824604 138.839255 -0.000000 -0.000000 1.000000 1.000000 1.000000
249 1 9.528788 161.671461 9.528788 161.671461 -0.000000 0.000000 1.000000 1.000000 1.000000
250 1 151.746352 112.199827 151.746352 112.199827 0.000000 0.000000 1.000000 1.000000 1.000000
251 1 120.618957 214.680879 120.618957 214.680879 -0.000000 0.000000 1.000000 1.000000 1.000000
252 1 149.334776 230.324593 149.334776 230.324593 0.000000 0.000000 1.000000 1.000000 1.000000
253 1 225.820271 222.168023 225.820271 222.168023 -0.000000 0.000000 1.000000 1.000000 1.000000
254 1 244.252014 142.532804 244.252014 142.532804 -0.000000 0.000000 1.000000 1.000000 1.000000
255 1 200.674900 191.952649 200.674900 191.952649 -0.000000 -0.000000 1.000000 1.000000 1.000000
256 1 219.927121 164.527504 219.927121 164.527504 0.000000 -0.000000 1.000000 1.000000 1.000000
257 1 12.876888 194.834590 12.876888 194.834590 0.000000 0.000000 1.000000 1.000000 1.000000
258 1 107.031816 19.536170 107.031816 19.536170 0.000000 0.000000 1.000000 1.000000 1.000000
259 1 186.408707 78.848667 186.408707 78.848667 0.000000 -0.000000 1.000000 1.000000 1.000000
260 1 150.954603 210.954881 150.954603 210.954881 -0.000000 0.000000 1.000000 1.000000 1.000000
261 1 142.792454 107.290861 142.792454 107.290861 -0.000000 -0.000000 1.000000 1.000000 1.000000
262 1 204.797564 2.358518 204.797564 2.358518 -0.000000 -0.000000 1.000000 1.000000 1.000000
263 1 72.998872 85.525241 72.998872 85.525241 0.000000 0.000000 1.000000 1.000000 1.000000
264 1 249.924339 96.715812 -3.833205 96.715812 -0.000000 0.000000 1.000000 1.000000 1.000000
265 1 28.868831 80.000436 28.868831 80.000436 -0.000000 0.000000 1.000000 1.000000 1.000000
266 1 128.747415 152.521618 128.747415 152.521618 -0.000000 -0.000000 1.000000 1.000000 1.000000
267 1 65.459283 190.312441 65.459283 190.312441 -0.000000 0.000000 1.000000 1.000000 1.000000
268 1 66.247585 125.452208 66.247585 125.452208 0.000000 0.000000 1.000000 1.000000 1.000000
269 1 76.675786 29.920742 76.675786 29.920742 0.000000 0.000000 1.000000 1.000000 1.000000
270 1 49.246900 78.695837 49.246900 78.695837 0.000000 -0.000000 1.000000 1.000000 1.000000
271 1 80.202128 80.042500 80.202128 80.042500 0.000000 0.000000 1.000000 1.000000 1.000000
272 1 167.551110 17.819208 167.551110 17.819208 0.000000 -0.000000 1.000000 1.000000 1.000000
273 1 239.331776 84.903471 239.331776 84.903471 -0.000000 0.000000 1.000000 1.000000 1.000000
274 1 171.935886 132.369202 171.935886 132.369202 -0.000000 -0.000000 1.000000 1.000000 1.000000
275 1 222.097368 164.966168 222.097368 164.966168 -0.000000 -0.000000 1.000000 1.000000 1.000000
276 1 146.995560 54.270034 146.995560 54.270034 -0.000000 -0.000000 1.000000 1.000000 1.000000
277 1 10.699857 11.680549 10.699857 11.680549 0.000000 -0.000000 1.000000 1.000000 1.000000
278 1 79.362248 56.678905 79.362248 56.678905 -0.000000 0.000000 1.000000 1.000000 1.000000
279 1 221.551040 217.232455 221.551040 217.232455 -0.000000 -0.000000 1.000000 1.000000 1.000000
280 1 116.277672 243.313909 116.277672 243.313909 0.000000 0.000000 1.000000 1.000000 1.000000
281 1 202.661362 118.018072 202.661362 118.018072 -0.000000 0.000000 1.000000 1.000000 1.000000
282 1 224.420547 148.509525 224.420547 148.509525 -0.000000 -0.000000 1.000000 1.000000 1.000000
283 1 10.760379 189.515142 10.760379 189.515142 0.000000 0.000000 1.000000 1.000000 1.000000
284 1 154.788884 228.786503 154.788884 228.786503 -0.000000 0.000000 1.000000 1.000000 1.000000
285 1 20.911861 39.997562 20.911861 39.997562 -0.000000 -0.000000 1.000000 1.000000 1.000000
286 1 94.990973 210.239487 94.990973 210.239487 -0.000000 -0.000000 1.000000 1.000000 1.000000
287 1 156.523700 234.477844 156.523700 234.477844 -0.000000 0.000000 1.000000 1.000000 1.000000
288 1 143.424678 109.784273 143.424678 109.784273 -0.000000 0.000000 1.000000 1.000000 1.000000
289 1 69.005779 248.590608 69.005779 248.590608 0.000000 -0.000000 1.000000 1.000000 1.000000
290 1 68.257695 204.865460 68.257695 204.865460 0.000000 -0.000000 1.000000 1.000000 1.000000
291 1 43.494435 101.172995 43.494435 101.172995 -0.000000 0.000000 1.000000 1.000000 1.000000
292 1 179.719391 165.630728 179.719391 165.630728 -0.000000 0.000000 1.000000 1.000000 1.000000
293 1 151.047433 38.483207 151.047433 38.483207 -0.000000 0.000000 1.000000 1.000000 1.000000
294 1 194.614447 154.697620 194.614447 154.697620 -0.000000 0.000000 1.000000 1.000000 1.000000
295 1 197.434925 162.648602 197.434925 162.648602 0.000000 0.000000 1.000000 1.000000 1.000000
296 1 2.381038 207.592311 256.138582 207.592311 -0.000000 0.000000 1.000000 1.000000 1.000000
297 1 171.497472 41.070471 171.497472 41.070471 -0.000000 -0.000000 1.000000 1.000000 1.000000
298 1 203.557832 181.639532 203.557832 181.639532 -0.000000 -0.000000 1.000000 1.000000 1.000000
299 1 69.270581 115.293558 69.270581 115.293558 -0.000000 0.000000 1.000000 1.000000 1.000000
300 1 211.819074 191.093990 211.819074 191.093990 0.000000 0.000000 1.000000 1.000000 1.000000
301 1 193.186793 18.474736 193.186793 18.474736 0.000000 0.000000 1.000000 1.000000 1.000000
302 1 3.898676 114.146658 257.656220 114.146658 -0.000000 0.000000 1.000000 1.000000 1.000000
303 1 170.359420 210.690587 170.359420 210.690587 0.000000 -0.000000 1.000000 1.000000 1.000000
304 1 238.654342 144.614470 238.654342 144.614470 -0.000000 0.000000 1.000000 1.000000 1.000000
305 1 112.243391 68.258601 112.243391 68.258601 -0.000000 0.000000 1.000000 1.000000 1.000000
306 1 2.420699 16.290783 2.420699 16.290783 0.000000 -0.000000 1.000000 1.000000 1.000000
307 1 229.478089 81.535948 229.478089 81.535948 0.000000 0.000000 1.000000 1.000000 1.000000
308 1 69.070411 174.954684 69.070411 174.954684 -0.000000 0.000000 1.000000 1.000000 1.000000
309 1 75.589778 42.594138 75.589778 42.594138 -0.000000 -0.000000 1.000000 1.000000 1.000000
310 1 32.026376 29.207819 32.026376 29.207819 0.000000 -0.000000 1.000000 1.000000 1.000000
311 1 186.987460 92.138956 186.987460 92.138956 0.000000 -0.000000 1.000000 1.000000 1.000000
312 1 97.512302 147.266367 97.512302 147.266367 0.000000 -0.000000 1.000000 1.000000 1.000000
313 1 28.133217 85.336114 28.133217 85.336114 0.000000 -0.000000 1.000000 1.000000 1.000000
314 1 213.704438 88.352161 213.704438 88.352161 -0.000000 -0.000000 1.000000 1.000000 1.000000
315 1 242.035040 180.493226 242.035040 180.493226 -0.000000 -0.000000 1.000000 1.000000 1.000000
316 1 243.582801 29.080896 -10.174743 29.080896 -0.000000 0.000000 1.000000 1.000000 1.000000