ITEM: TIMESTEP
2100.000000
ITEM: NUMBER OF ATOMS
5000
ITEM: BOX BOUNDS xy xz yz
0 213.707111 0
0 213.707111 0
0 2 0
ITEM: ATOMS id type x y xu yu vx vy radius m z
0 1 212.394458 24.931057 212.394458 24.931057 0.000000 0.000000 1.000000 1.000000 1.000000
1 1 118.904133 1.026394 118.904133 214.733505 0.000000 -0.000000 1.000000 1.000000 1.000000
2 1 198.665320 143.328703 198.665320 143.328703 0.000000 0.000000 1.000000 1.000000 1.000000
3 1 117.425289 141.446556 117.425289 141.446556 0.000000 0.000000 1.000000 1.000000 1.000000
4 1 51.650047 155.542765 51.650047 155.542765 -0.000000 0.000000 1.000000 1.000000 1.000000
5 1 121.046979 26.182210 121.046979 26.182210 -0.000000 -0.000000 1.000000 1.000000 1.000000
6 1 183.002180 150.836866 183.002180 150.836866 -0.000000 0.000000 1.000000 1.000000 1.000000
7 1 151.995354 56.946774 151.995354 56.946774 0.000000 -0.000000 1.000000 1.000000 1.000000
8 1 110.167292 169.041472 110.167292 169.041472 0.000000 0.000000 1.000000 1.000000 1.000000
9 1 140.209058 145.268838 140.209058 145.268838 0.000000 -0.000000 1.000000 1.000000 1.000000
10 1 145.346714 166.137406 145.346714 166.137406 0.000000 -0.000000 1.000000 1.000000 1.000000
11 1 171.473305 127.770012 171.473305 127.770012 -0.000000 0.000000 1.000000 1.000000 1.000000
12 1 47.891647 97.927457 47.891647 97.927457 -0.000000 -0.000000 1.000000 1.000000 1.000000
13 1 175.598351 86.482629 175.598351 86.482629 -0.000000 0.000000 1.000000 1.000000 1.000000
14 1 180.026317 60.862486 180.026317 60.862486 0.000000 -0.000000 1.000000 1.000000 1.000000
15 1 175.521467 23.168109 175.521467 23.168109 0.000000 0.000000 1.000000 1.000000 1.000000
16 1 146.153427 45.322085 146.153427 45.322085 0.000000 0.000000 1.000000 1.000000 1.000000
17 1 78.749737 2.998107 78.749737 2.998107 -0.000000 0.000000 1.000000 1.000000 1.000000
18 1 71.152565 202.555674 71.152565 202.555674 0.000000 -0.000000 1.000000 1.000000 1.000000
19 1 178.685260 128.499573 178.685260 128.499573 0.000000 -0.000000 1.000000 1.000000 1.000000
20 1 2.319482 6.724939 2.319482 6.724939 0.000000 0.000000 1.000000 1.000000 1.000000
21 1 34.141131 128.796306 34.141131 128.796306 -0.000000 -0.000000 1.000000 1.000000 1.000000
22 1 159.097804 185.411588 159.097804 185.411588 0.000000 -0.000000 1.000000 1.000000 1.000000
23 1 111.598123 212.720383 111.598123 212.720383 -0.000000 -0.000000 1.000000 1.000000 1.000000
24 1 147.891232 155.393536 147.891232 155.393536 -0.000000 0.000000 1.000000 1.000000 1.000000
25 1 21.545034 125.785511 21.545034 125.785511 0.000000 -0.000000 1.000000 1.000000 1.000000
26 1 143.066824 3.327476 143.066824 3.327476 -0.000000 0.000000 1.000000 1.000000 1.000000
27 1 76.345955 147.525409 76.345955 147.525409 -0.000000 0.000000 1.000000 1.000000 1.000000
28 1 133.482609 130.711644 133.482609 130.711644 0.000000 0.000000 1.000000 1.000000 1.000000
29 1 63.440218 182.693062 63.440218 182.693062 0.000000 0.000000 1.000000 1.000000 1.000000
30 1 27.540542 162.496718 27.540542 162.496718 -0.000000 0.000000 1.000000 1.000000 1.000000
31 1 204.485540 52.149107 204.485540 52.149107 0.000000 0.000000 1.000000 1.000000 1.000000
32 1 189.746673 196.550285 189.746673 196.550285 0.000000 0.000000 1.000000 1.000000 1.000000
33 1 121.147482 176.593064 121.147482 176.593064 0.000000 -0.000000 1.000000 1.000000 1.000000
34 1 189.808618 122.641286 189.808618 122.641286 0.000000 -0.000000 1.000000 1.000000 1.000000
35 1 175.314743 157.613986 175.314743 157.613986 0.000000 -0.000000 1.000000 1.000000 1.000000
36 1 126.079919 91.256131 126.079919 91.256131 0.000000 -0.000000 1.000000 1.000000 1.000000
37 1 98.736515 114.525080 98.736515 114.525080 0.000000 0.000000 1.000000 1.000000 1.000000
38 1 48.572489 143.795876 48.572489 143.795876 -0.000000 0.000000 1.000000 1.000000 1.000000
39 1 44.399092 122.521370 44.399092 122.521370 0.000000 -0.000000 1.000000 1.000000 1.000000
40 1 84.011366 86.016651 84.011366 86.016651 0.000000 -0.000000 1.000000 1.000000 1.000000
41 1 178.645543 70.852845 178.645543 70.852845 0.000000 0.000000 1.000000 1.000000 1.000000
42 1 209.067072 162.060473 209.067072 162.060473 0.000000 0.000000 1.000000 1.000000 1.000000
43 1 175.147456 90.058520 175.147456 90.058520 0.000000 -0.000000 1.000000 1.000000 1.000000
44 1 109.572766 56.454429 109.572766 56.454429 -0.000000 0.000000 1.000000 1.000000 1.000000
45 1 175.339504 59.991927 175.339504 59.991927 0.000000 0.000000 1.000000 1.000000 1.000000
46 1 185.956673 72.057944 185.956673 72.057944 -0.000000 0.000000 1.000000 1.000000 1.000000
47 1 156.112823 112.052783 156.112823 112.052783 0.000000 0.000000 1.000000 1.000000 1.000000
48 1 62.847962 77.858206 62.847962 77.858206 0.000000 0.000000 1.000000 1.000000 1.000000
49 1 11.853557 145.352271 11.853557 145.352271 -0.000000 0.000000 1.000000 1.000000 1.000000
50 1 102.673935 135.472221 102.673935 135.472221 0.000000 0.000000 1.000000 1.000000 1.000000
51 1 58.585724 164.599724 58.585724 164.599724 -0.000000 0.000000 1.000000 1.000000 1.000000
52 1 19.555737 113.730909 19.555737 113.730909 0.000000 -0.000000 1.000000 1.000000 1.000000
53 1 150.430088 55.406268 150.430088 55.406268 -0.000000 0.000000 1.000000 1.000000 1.000000
54 1 57.908016 136.220096 57.908016 136.220096 -0.000000 0.000000 1.000000 1.000000 1.000000
55 1 130.444927 191.284689 130.444927 191.284689 0.000000 0.000000 1.000000 1.000000 1.000000
56 1 139.797984 208.074810 139.797984 -5.632301 -0.000000 -0.000000 1.000000 1.000000 1.000000
57 1 137.014512 115.857660 137.014512 115.857660 -0.000000 -0.000000 1.000000 1.000000 1.000000
58 1 26.170876 60.201451 26.170876 60.201451 0.000000 0.000000 1.000000 1.000000 1.000000
59 1 209.357039 53.522766 -4.350072 53.522766 -0.000000 -0.000000 1.000000 1.000000 1.000000
60 1 53.462293 205.747367 53.462293 205.747367 -0.000000 -0.000000 1.000000 1.000000 1.000000
61 1 123.892510 43.722010 123.892510 43.722010 -0.000000 0.000000 1.000000 1.000000 1.000000
62 1 20.447967 209.916280 20.447967 -3.790831 -0.000000 -0.000000 1.000000 1.000000 1.000000
63 1 67.408050 35.828090 67.408050 35.828090 0.000000 -0.000000 1.000000 1.000000 1.000000
64 1 60.548661 77.181549 60.548661 77.181549 -0.000000 -0.000000 1.000000 1.000000 1.000000
65 1 210.205150 122.920127 210.205150 122.920127 0.000000 -0.000000 1.000000 1.000000 1.000000
66 1 106.120248 75.468085 106.120248 75.468085 0.000000 0.000000 1.000000 1.000000 1.000000
67 1 25.620710 154.621612 25.620710 154.621612 0.000000 0.000000 1.000000 1.000000 1.000000
68 1 38.556924 1.730170 38.556924 1.730170 0.000000 0.000000 1.000000 1.000000 1.000000
69 1 42.503433 162.214400 42.503433 162.214400 0.000000 -0.000000 1.000000 1.000000 1.000000
70 1 38.526262 67.598153 38.526262 67.598153 0.000000 0.000000 1.000000 1.000000 1.000000
71 1 179.619216 56.347403 179.619216 56.347403 0.000000 -0.000000 1.000000 1.000000 1.000000
72 1 180.574955 93.565359 180.574955 93.565359 -0.000000 -0.000000 1.000000 1.000000 1.000000
73 1 181.144751 199.813604 181.144751 199.813604 0.000000 -0.000000 1.000000 1.000000 1.000000
74 1 41.310846 151.730587 41.310846 151.730587 -0.000000 0.000000 1.000000 1.000000 1.000000
75 1 208.770701 1.334147 -4.936410 215.041258 -0.000000 -0.000000 1.000000 1.000000 1.000000
76 1 174.524305 36.636987 174.524305 36.636987 0.000000 -0.000000 1.000000 1.000000 1.000000
77 1 89.739730 79.609404 89.739730 79.609404 0.000000 0.000000 1.000000 1.000000 1.000000
78 1 17.745481 195.557362 17.745481 195.557362 -0.000000 -0.000000 1.000000 1.000000 1.000000
79 1 114.915752 168.902770 114.915752 168.902770 0.000000 0.000000 1.000000 1.000000 1.000000
80 1 98.411910 25.879194 98.411910 25.879194 0.000000 0.000000 1.000000 1.000000 1.000000
81 1 205.743993 114.430953 205.743993 114.430953 -0.000000 0.000000 1.000000 1.000000 1.000000
82 1 178.910443 5.763377 178.910443 219.470488 0.000000 -0.000000 1.000000 1.000000 1.000000
83 1 192.881403 163.057353 192.881403 163.057353 -0.000000 0.000000 1.000000 1.000000 1.000000
84 1 5.466811 108.562940 219.173922 108.562940 0.000000 -0.000000 1.000000 1.000000 1.000000
85 1 3.277553 55.609168 3.277553 55.609168 -0.000000 0.000000 1.000000 1.000000 1.000000
86 1 132.064770 201.904943 132.064770 201.904943 -0.000000 0.000000 1.000000 1.000000 1.000000
87 1 168.703889 47.236019 168.703889 47.236019 0.000000 0.000000 1.000000 1.000000 1.000000
88 1 131.079088 100.615402 131.079088 100.615402 0.000000 -0.000000 1.000000 1.000000 1.000000
89 1 165.060253 40.272760 165.060253 40.272760 0.000000 0.000000 1.000000 1.000000 1.000000
90 1 42.568122 21.689253 42.568122 21.689253 -0.000000 -0.000000 1.000000 1.000000 1.000000
91 1 104.940897 46.043820 104.940897 46.043820 -0.000000 -0.000000 1.000000 1.000000 1.000000
92 1 83.671845 7.967403 83.671845 221.674514 -0.000000 0.000000 1.000000 1.000000 1.000000
93 1 12.897500 147.914408 12.897500 147.914408 -0.000000 0.000000 1.000000 1.000000 1.000000
94 1 120.811894 165.134515 120.811894 165.134515 0.000000 0.000000 1.000000 1.000000 1.000000
95 1 5.725213 96.965559 5.725213 96.965559 0.000000 0.000000 1.000000 1.000000 1.000000
96 1 198.637644 157.509054 198.637644 157.509054 0.000000 0.000000 1.000000 1.000000 1.000000
97 1 212.044873 53.091582 -1.662238 53.091582 -0.000000 0.000000 1.000000 1.000000 1.000000
98 1 158.405139 96.401911 158.405139 96.401911 0.000000 0.000000 1.000000 1.000000 1.000000
99 1 100.124848 67.305838 100.124848 67.305838 0.000000 -0.000000 1.000000 1.000000 1.000000
100 1 17.696463 150.535345 17.696463 150.535345 -0.000000 0.000000 1.000000 1.000000 1.000000
101 1 171.923038 203.814538 171.923038 203.814538 0.000000 -0.000000 1.000000 1.000000 1.000000
102 1 134.712601 121.669518 134.712601 121.669518 0.000000 -0.000000 1.000000 1.000000 1.000000
103 1 149.882006 197.356603 149.882006 197.356603 0.000000 0.000000 1.000000 1.000000 1.000000
104 1 147.904185 116.219273 147.904185 116.219273 0.000000 0.000000 1.000000 1.000000 1.000000
105 1 128.138486 178.512367 128.138486 178.512367 -0.000000 0.000000 1.000000 1.000000 1.000000
106 1 3.440212 110.335407 217.147323 110.335407 -0.000000 0.000000 1.000000 1.000000 1.000000
107 1 181.547013 80.687369 181.547013 80.687369 -0.000000 0.000000 1.000000 1.000000 1.000000
108 1 162.080123 130.311670 162.080123 130.311670 -0.000000 0.000000 1.000000 1.000000 1.000000
109 1 7.014135 28.061231 7.014135 28.061231 -0.000000 0.000000 1.000000 1.000000 1.000000
110 1 0.354312 54.770307 214.061423 54.770307 -0.000000 0.000000 1.000000 1.000000 1.000000
111 1 87.652900 76.439166 87.652900 76.439166 -0.000000 -0.000000 1.000000 1.000000 1.000000
112 1 90.921455 212.658949 90.921455 212.658949 -0.000000 0.000000 1.000000 1.000000 1.000000
113 1 103.140352 67.122819 103.140352 67.122819 -0.000000 0.000000 1.000000 1.000000 1.000000
114 1 3.202644 58.145147 216.909755 58.145147 -0.000000 0.000000 1.000000 1.000000 1.000000
115 1 22.649632 138.598456 22.649632 138.598456 0.000000 -0.000000 1.000000 1.000000 1.000000
116 1 105.664986 150.343668 105.664986 150.343668 -0.000000 -0.000000 1.000000 1.000000 1.000000
117 1 100.070730 180.747660 100.070730 180.747660 -0.000000 0.000000 1.000000 1.000000 1.000000
118 1 198.318497 197.372282 198.318497 197.372282 0.000000 0.000000 1.000000 1.000000 1.000000
119 1 144.937552 13.046104 144.937552 13.046104 0.000000 -0.000000 1.000000 1.000000 1.000000
120 1 36.692499 71.593809 36.692499 71.593809 0.000000 0.000000 1.000000 1.000000 1.000000
121 1 203.882004 58.820476 203.882004 58.820476 0.000000 -0.000000 1.000000 1.000000 1.000000
122 1 143.283828 26.808480 143.283828 26.808480 -0.000000 -0.000000 1.000000 1.000000 1.000000
123 1 50.152097 58.134014 50.152097 58.134014 -0.000000 0.000000 1.000000 1.000000 1.000000
124 1 135.783405 21.607443 135.783405 21.607443 0.000000 -0.000000 1.000000 1.000000 1.000000
125 1 58.455418 104.015985 58.455418 104.015985 0.000000 -0.000000 1.000000 1.000000 1.000000
126 1 73.609964 70.493159 73.609964 70.493159 0.000000 -0.000000 1.000000 1.000000 1.000000
127 1 87.871715 1.972687 87.871715 215.679798 0.000000 -0.000000 1.000000 1.000000 1.000000
128 1 24.464719 100.820187 24.464719 100.820187 -0.000000 -0.000000 1.000000 1.000000 1.000000
129 1 4.797591 192.785546 4.797591 192.785546 0.000000 -0.000000 1.000000 1.000000 1.000000
130 1 107.537742 117.738480 107.537742 117.738480 -0.000000 0.000000 1.000000 1.000000 1.000000
131 1 72.087112 54.054403 72.087112 54.054403 0.000000 -0.000000 1.000000 1.000000 1.000000
132 1 66.468139 97.641420 66.468139 97.641420 0.000000 -0.000000 1.000000 1.000000 1.000000
133 1 78.639846 11.931753 78.639846 11.931753 -0.000000 -0.000000 1.000000 1.000000 1.000000
134 1 195.946593 50.256237 195.946593 50.256237 0.000000 0.000000 1.000000 1.000000 1.000000
135 1 10.586814 112.309738 10.586814 112.309738 -0.000000 0.000000 1.000000 1.000000 1.000000
136 1 1.867955 34.046289 1.867955 34.046289 0.000000 0.000000 1.000000 1.000000 1.000000
137 1 25.179403 176.563672 25.179403 176.563672 -0.000000 0.000000 1.000000 1.000000 1.000000
138 1 185.701166 32.461309 185.701166 32.461309 -0.000000 0.000000 1.000000 1.000000 1.000000
139 1 94.520461 47.082390 94.520461 47.082390 -0.000000 -0.000000 1.000000 1.000000 1.000000
140 1 151.127538 73.914070 151.127538 73.914070 0.000000 -0.000000 1.000000 1.000000 1.000000
141 1 165.839154 23.339029 165.839154 23.339029 0.000000 -0.000000 1.000000 1.000000 1.000000
142 1 110.382313 185.202257 110.382313 185.202257 0.000000 0.000000 1.000000 1.000000 1.000000
143 1 26.813896 166.257118 26.813896 166.257118 -0.000000 -0.000000 1.000000 1.000000 1.000000
144 1 21.870473 170.984874 21.870473 170.984874 -0.000000 -0.000000 1.000000 1.000000 1.000000
145 1 139.303841 174.859333 139.303841 174.859333 -0.000000 0.000000 1.000000 1.000000 1.000000
146 1 210.990908 21.303166 210.990908 21.303166 0.000000 0.000000 1.000000 1.000000 1.000000
147 1 176.776653 17.034666 176.776653 17.034666 0.000000 -0.000000 1.000000 1.000000 1.000000
148 1 71.732503 169.816412 71.732503 169.816412 0.000000 -0.000000 1.000000 1.000000 1.000000
149 1 196.859828 47.724256 196.859828 47.724256 -0.000000 0.000000 1.000000 1.000000 1.000000
150 1 43.357026 67.134107 43.357026 67.134107 -0.000000 0.000000 1.000000 1.000000 1.000000
151 1 201.121811 136.224693 201.121811 136.224693 -0.000000 0.000000 1.000000 1.000000 1.000000
152 1 38.387011 94.925158 38.387011 94.925158 0.000000 -0.000000 1.000000 1.000000 1.000000
153 1 42.081123 71.411832 42.081123 71.411832 -0.000000 0.000000 1.000000 1.000000 1.000000
154 1 152.231603 71.800397 152.231603 71.800397 -0.000000 -0.000000 1.000000 1.000000 1.000000
155 1 135.690165 13.466835 135.690165 13.466835 0.000000 0.000000 1.000000 1.000000 1.000000
156 1 68.168854 21.342001 68.168854 21.342001 0.000000 0.000000 1.000000 1.000000 1.000000
157 1 66.613955 3.401435 66.613955 217.108546 0.000000 -0.000000 1.000000 1.000000 1.000000
158 1 66.390735 145.699020 66.390735 145.699020 0.000000 0.000000 1.000000 1.000000 1.000000
159 1 16.666806 74.837855 16.666806 74.837855 -0.000000 0.000000 1.000000 1.000000 1.000000
160 1 120.197797 112.830293 120.197797 112.830293 -0.000000 -0.000000 1.000000 1.000000 1.000000
161 1 1.074743 143.446709 1.074743 143.446709 -0.000000 0.000000 1.000000 1.000000 1.000000
162 1 141.168610 156.813943 141.168610 156.813943 0.000000 0.000000 1.000000 1.000000 1.000000
163 1 212.255813 95.567133 -1.451298 95.567133 -0.000000 -0.000000 1.000000 1.000000 1.000000
164 1 0.888814 25.314596 0.888814 25.314596 -0.000000 0.000000 1.000000 1.000000 1.000000
165 1 30.857222 10.425859 30.857222 224.132970 -0.000000 0.000000 1.000000 1.000000 1.000000
166 1 37.240669 211.959039 37.240669 211.959039 -0.000000 -0.000000 1.000000 1.000000 1.000000
167 1 24.737099 70.019271 24.737099 70.019271 -0.000000 0.000000 1.000000 1.000000 1.000000
168 1 38.181616 195.115373 38.181616 195.115373 0.000000 0.000000 1.000000 1.000000 1.000000
169 1 64.574023 56.961310 64.574023 56.961310 -0.000000 -0.000000 1.000000 1.000000 1.000000
170 1 125.129414 109.648206 125.129414 109.648206 0.000000 -0.000000 1.000000 1.000000 1.000000
171 1 126.244113 201.908315 126.244113 201.908315 0.000000 -0.000000 1.000000 1.000000 1.000000
172 1 111.376699 176.218397 111.376699 176.218397 -0.000000 0.000000 1.000000 1.000000 1.000000
173 1 76.872775 202.864155 76.872775 -10.842956 -0.000000 0.000000 1.000000 1.000000 1.000000
174 1 64.851599 197.200464 64.851599 197.200464 -0.000000 0.000000 1.000000 1.000000 1.000000
175 1 187.788774 133.673240 187.788774 133.673240 0.000000 -0.000000 1.000000 1.000000 1.000000
176 1 135.163956 114.142187 135.163956 114.142187 -0.000000 -0.000000 1.000000 1.000000 1.000000
177 1 85.280370 143.193967 85.280370 143.193967 0.000000 0.000000 1.000000 1.000000 1.000000
178 1 97.240602 168.717369 97.240602 168.717369 -0.000000 0.000000 1.000000 1.000000 1.000000
179 1 80.909538 196.199109 80.909538 196.199109 -0.000000 -0.000000 1.000000 1.000000 1.000000
180 1 175.813570 8.662903 175.813570 8.662903 0.000000 0.000000 1.000000 1.000000 1.000000
181 1 64.000513 46.829940 64.000513 46.829940 -0.000000 -0.000000 1.000000 1.000000 1.000000
182 1 191.829525 196.904359 191.829525 196.904359 -0.000000 0.000000 1.000000 1.000000 1.000000
183 1 65.275613 148.423460 65.275613 148.423460 0.000000 0.000000 1.000000 1.000000 1.000000
184 1 128.997895 57.399761 128.997895 57.399761 0.000000 -0.000000 1.000000 1.000000 1.000000
185 1 82.948546 151.333249 82.948546 151.333249 0.000000 -0.000000 1.000000 1.000000 1.000000
186 1 48.174398 19.579546 48.174398 19.579546 0.000000 0.000000 1.000000 1.000000 1.000000
187 1 63.406854 51.304777 63.406854 51.304777 0.000000 -0.000000 1.000000 1.000000 1.000000
188 1 138.442716 117.437163 138.442716 117.437163 -0.000000 0.000000 1.000000 1.000000 1.000000
189 1 35.831446 154.466523 35.831446 154.466523 0.000000 -0.000000 1.000000 1.000000 1.000000
190 1 172.153880 106.280661 172.153880 106.280661 0.000000 0.000000 1.000000 1.000000 1.000000
191 1 75.238717 25.996410 75.238717 25.996410 -0.000000 -0.000000 1.000000 1.000000 1.000000
192 1 71.049755 167.016885 71.049755 167.016885 0.000000 -0.000000 1.000000 1.000000 1.000000
193 1 203.957769 96.242088 -9.749342 96.242088 -0.000000 0.000000 1.000000 1.000000 1.000000
194 1 7.808320 17.841649 221.515431 17.841649 0.000000 0.000000 1.000000 1.000000 1.000000
195 1 154.311772 44.130785 154.311772 44.130785 -0.000000 0.000000 1.000000 1.000000 1.000000
196 1 93.256948 100.576151 93.256948 100.576151 0.000000 -0.000000 1.000000 1.000000 1.000000
197 1 174.275021 153.069517 174.275021 153.069517 -0.000000 0.000000 1.000000 1.000000 1.000000
198 1 60.936569 44.578611 60.936569 44.578611 -0.000000 -0.000000 1.000000 1.000000 1.000000
199 1 133.054589 11.706921 133.054589 11.706921 0.000000 -0.000000 1.000000 1.000000 1.000000
200 1 55.142633 71.995835 55.142633 71.995835 -0.000000 -0.000000 1.000000 1.000000 1.000000
201 1 154.653139 3.389175 154.653139 217.096286 -0.000000 -0.000000 1.000000 1.000000 1.000000
202 1 161.784723 155.042547 161.784723 155.042547 0.000000 -0.000000 1.000000 1.000000 1.000000
203 1 127.385558 155.214935 127.385558 155.214935 -0.000000 0.000000 1.000000 1.000000 1.000000
204 1 140.772835 15.246021 140.772835 15.246021 0.000000 -0.000000 1.000000 1.000000 1.000000
205 1 50.616650 82.107787 50.616650 82.107787 -0.000000 -0.000000 1.000000 1.000000 1.000000
206 1 157.482718 189.961334 157.482718 189.961334 -0.000000 0.000000 1.000000 1.000000 1.000000
207 1 35.996681 125.996570 35.996681 125.996570 0.000000 0.000000 1.000000 1.000000 1.000000
208 1 97.144782 43.336088 97.144782 43.336088 0.000000 0.000000 1.000000 1.000000 1.000000
209 1 68.067449 89.885335 68.067449 89.885335 0.000000 0.000000 1.000000 1.000000 1.000000
210 1 125.138216 182.521984 125.138216 182.521984 0.000000 0.000000 1.000000 1.000000 1.000000
211 1 138.891803 93.301415 138.891803 93.301415 -0.000000 0.000000 1.000000 1.000000 1.000000
212 1 189.337953 154.987346 189.337953 154.987346 -0.000000 0.000000 1.000000 1.000000 1.000000
213 1 12.779538 199.900139 12.779538 199.900139 -0.000000 -0.000000 1.000000 1.000000 1.000000
214 1 187.714384 73.797421 187.714384 73.797421 -0.000000 0.000000 1.000000 1.000000 1.000000
215 1 147.720447 68.828473 147.720447 68.828473 0.000000 0.000000 1.000000 1.000000 1.000000
216 1 92.378325 196.145171 92.378325 196.145171 -0.000000 -0.000000 1.000000 1.000000 1.000000
217 1 0.052354 36.118581 0.052354 36.118581 -0.000000 -0.000000 1.000000 1.000000 1.000000
218 1 118.821243 78.103817 118.821243 78.103817 0.000000 0.000000 1.000000 1.000000 1.000000
219 1 122.661478 115.140394 122.661478 115.140394 0.000000 0.000000 1.000000 1.000000 1.000000
220 1 140.035779 77.403087 140.035779 77.403087 0.000000 0.000000 1.000000 1.000000 1.000000
221 1 32.969561 200.535745 32.969561 200.535745 -0.000000 0.000000 1.000000 1.000000 1.000000
222 1 101.634545 76.632446 101.634545 76.632446 0.000000 -0.000000 1.000000 1.000000 1.000000
223 1 151.020416 9.311382 151.020416 9.311382 -0.000000 -0.000000 1.000000 1.000000 1.000000
224 1 61.704076 123.336247 61.704076 123.336247 -0.000000 0.000000 1.000000 1.000000 1.000000
225 1 137.703535 107.708352 137.703535 107.708352 -0.000000 0.000000 1.000000 1.000000 1.000000
226 1 117.973773 184.365061 117.973773 184.365061 -0.000000 -0.000000 1.000000 1.000000 1.000000
227 1 145.832559 40.501548 145.832559 40.501548 -0.000000 0.000000 1.000000 1.000000 1.000000
228 1 118.237473 201.189606 118.237473 201.189606 0.000000 -0.000000 1.000000 1.000000 1.000000
229 1 210.060241 40.765735 210.060241 40.765735 -0.000000 -0.000000 1.000000 1.000000 1.000000
230 1 20.394048 159.675245 20.394048 159.675245 -0.000000 -0.000000 1.000000 1.000000 1.000000
231 1 212.815670 108.569677 212.815670 108.569677 0.000000 0.000000 1.000000 1.000000 1.000000
232 1 10.141755 127.187557 10.141755 127.187557 0.000000 -0.000000 1.000000 1.000000 1.000000
233 1 204.339675 31.316959 204.339675 31.316959 0.000000 -0.000000 1.000000 1.000000 1.000000
234 1 77.664350 114.739347 77.664350 114.739347 0.000000 -0.000000 1.000000 1.000000 1.000000
235 1 8.591600 21.349259 8.591600 21.349259 0.000000 0.000000 1.000000 1.000000 1.000000
236 1 55.603876 21.708984 55.603876 21.708984 0.000000 0.000000 1.000000 1.000000 1.000000
237 1 61.338821 197.553284 61.338821 -16.153827 -0.000000 0.000000 1.000000 1.000000 1.000000
238 1 84.158935 125.406665 84.158935 125.406665 0.000000 -0.000000 1.000000 1.000000 1.000000
239 1 22.720637 204.953327 22.720637 204.953327 -0.000000 -0.000000 1.000000 1.000000 1.000000
240 1 46.327586 117.348803 46.327586 117.348803 -0.000000 -0.000000 1.000000 1.000000 1.000000
241 1 181.877837 32.863640 181.877837 32.863640 -0.000000 0.000000 1.000000 1.000000 1.000000
242 1 192.055269 92.132557 192.055269 92.132557 -0.000000 0.000000 1.000000 1.000000 1.000000
243 1 21.727188 14.107236 21.727188 14.107236 0.000000 -0.000000 1.000000 1.000000 1.000000
244 1 158.326999 55.349274 158.326999 55.349274 0.000000 -0.000000 1.000000 1.000000 1.000000
245 1 0.742737 121.599994 214.449848 121.599994 0.000000 0.000000 1.000000 1.000000 1.000000
246 1 48.981754 15.685493 48.981754 15.685493 0.000000 0.000000 1.000000 1.000000 1.000000
247 1 45.603953 59.220933 45.603953 59.220933 0.000000 0.000000 1.000000 1.000000 1.000000
248 1 154.073218 90.689070 154.073218 90.689070 0.000000 0.000000 1.000000 1.000000 1.000000
249 1 189.270323 16.712200 189.270323 16.712200 0.000000 0.000000 1.000000 1.000000 1.000000
250 1 37.735502 5.899357 37.735502 5.899357 -0.000000 -0.000000 1.000000 1.000000 1.000000
251 1 116.057481 74.776818 116.057481 74.776818 0.000000 -0.000000 1.000000 1.000000 1.000000
252 1 180.165738 14.338379 180.165738 14.338379 -0.000000 0.000000 1.000000 1.000000 1.000000
253 1 182.576079 156.724418 182.576079 156.724418 -0.000000 0.000000 1.000000 1.000000 1.000000
254 1 192.781791 20.360439 192.781791 20.360439 -0.000000 -0.000000 1.000000 1.000000 1.000000
255 1 83.761801 210.091876 83.761801 210.091876 0.000000 0.000000 1.000000 1.000000 1.000000
256 1 154.628937 64.158321 154.628937 64.158321 -0.000000 0.000000 1.000000 1.000000 1.000000
257 1 81.314206 0.433701 81.314206 214.140812 -0.000000 -0.000000 1.000000 1.000000 1.000000
258 1 192.586335 53.627697 192.586335 53.627697 -0.000000 0.000000 1.000000 1.000000 1.000000
259 1 113.074395 98.289300 113.074395 98.289300 -0.000000 0.000000 1.000000 1.000000 1.000000
260 1 171.274468 56.731169 171.274468 56.731169 0.000000 0.000000 1.000000 1.000000 1.000000
261 1 43.171412 13.353892 43.171412 13.353892 0.000000 -0.000000 1.000000 1.000000 1.000000
262 1 131.691199 187.343124 131.691199 187.343124 0.000000 0.000000 1.000000 1.000000 1.000000
263 1 121.712117 127.824131 121.712117 127.824131 0.000000 -0.000000 1.000000 1.000000 1.000000
264 1 29.466878 200.256956 29.466878 200.256956 0.000000 -0.000000 1.000000 1.000000 1.000000
265 1 155.355147 122.858221 155.355147 122.858221 -0.000000 -0.000000 1.000000 1.000000 1.000000
266 1 166.689219 38.274872 166.689219 38.274872 -0.000000 -0.000000 1.000000 1.000000 1.000000
267 1 46.830085 22.591952 46.830085 22.591952 -0.000000 0.000000 1.000000 1.000000 1.000000
268 1 198.038121 128.641648 198.038121 128.641648 -0.000000 -0.000000 1.000000 1.000000 1.000000
269 1 105.229269 186.084567 105.229269 186.084567 0.000000 -0.000000 1.000000 1.000000 1.000000
270 1 74.797920 185.750641 74.797920 185.750641 -0.000000 0.000000 1.000000 1.000000 1.000000
271 1 191.876463 39.558369 191.876463 39.558369 -0.000000 0.000000 1.000000 1.000000 1.000000
272 1 167.630372 199.411646 167.630372 199.411646 0.000000 -0.000000 1.000000 1.000000 1.000000
273 1 83.532603 46.646557 83.532603 46.646557 -0.000000 0.000000 1.000000 1.000000 1.000000
274 1 87.011088 113.394912 87.011088 113.394912 0.000000 -0.000000 1.000000 1.000000 1.000000
275 1 106.610428 108.624445 106.610428 108.624445 -0.000000 0.000000 1.000000 1.000000 1.000000
276 1 86.726961 51.871283 86.726961 51.871283 0.000000 0.000000 1.000000 1.000000 1.000000
277 1 4.205446 195.773546 4.205446 195.773546 0.000000 0.000000 1.000000 1.000000 1.000000
278 1 111.987688 88.630749 111.987688 88.630749 0.000000 0.000000 1.000000 1.000000 1.000000
279 1 29.651331 120.806317 29.651331 120.806317 -0.000000 -0.000000 1.000000 1.000000 1.000000
280 1 183.202143 205.482117 183.202143 -8.224994 0.000000 -0.000000 1.000000 1.000000 1.000000
281 1 210.713533 134.524832 210.713533 134.524832 0.000000 0.000000 1.000000 1.000000 1.000000
282 1 82.135046 93.764952 82.135046 93.764952 -0.000000 -0.000000 1.000000 1.000000 1.000000
283 1 94.671430 110.897042 94.671430 110.897042 0.000000 -0.000000 1.000000 1.000000 1.000000
284 1 106.799607 157.068316 106.799607 157.068316 -0.000000 -0.000000 1.000000 1.000000 1.000000
285 1 6.091427 72.592783 6.091427 72.592783 -0.000000 0.000000 1.000000 1.000000 1.000000
286 1 57.055519 39.828983 57.055519 39.828983 0.000000 -0.000000 1.000000 1.000000 1.000000
287 1 180.998519 65.134333 180.998519 65.134333 0.000000 -0.000000 1.000000 1.000000 1.000000
288 1 203.600016 210.757568 203.600016 -2.949543 0.000000 0.000000 1.000000 1.000000 1.000000
289 1 194.251346 14.168535 194.251346 14.168535 -0.000000 -0.000000 1.000000 1.000000 1.000000
290 1 127.629979 45.765901 127.629979 45.765901 0.000000 0.000000 1.000000 1.000000 1.000000
291 1 2.576956 24.233745 2.576956 24.233745 -0.000000 0.000000 1.000000 1.000000 1.000000
292 1 39.742871 21.867353 39.742871 21.867353 0.000000 0.000000 1.000000 1.000000 1.000000
293 1 72.444923 6.125825 72.444923 6.125825 -0.000000 -0.000000 1.000000 1.000000 1.000000
294 1 98.699410 152.784803 98.699410 152.784803 -0.000000 -0.000000 1.000000 1.000000 1.000000
295 1 191.988555 191.986307 191.988555 191.986307 -0.000000 -0.000000 1.000000 1.000000 1.000000
296 1 118.161532 45.762725 118.161532 45.762725 -0.000000 -0.000000 1.000000 1.000000 1.000000
297 1 160.404197 108.340625 160.404197 108.340625 0.000000 0.000000 1.000000 1.000000 1.000000
298 1 32.570164 157.767689 32.570164 157.767689 -0.000000 0.000000 1.000000 1.000000 1.000000
299 1 96.370473 190.869481 96.370473 190.869481 0.000000 0.000000 1.000000 1.000000 1.000000
300 1 8.682534 62.404720 222.389645 62.404720 -0.000000 0.000000 1.000000 1.000000 1.000000
301 1 126.754857 18.979989 126.754857 18.979989 0.000000 0.000000 1.000000 1.000000 1.000000
302 1 125.526351 134.331961 125.526351 134.331961 -0.000000 0.000000 1.000000 1.000000 1.000000
303 1 98.771975 9.083398 98.771975 9.083398 0.000000 -0.000000 1.000000 1.000000 1.000000
304 1 180.673421 131.704224 180.673421 131.704224 0.000000 0.000000 1.000000 1.000000 1.000000
305 1 200.680640 88.239886 200.680640 88.239886 -0.000000 0.000000 1.000000 1.000000 1.000000
306 1 16.746610 155.718925 16.746610 155.718925 0.000000 0.000000 1.000000 1.000000 1.000000
307 1 130.427232 42.862638 130.427232 42.862638 -0.000000 -0.000000 1.000000 1.000000 1.000000
308 1 194.089701 39.009106 194.089701 39.009106 0.000000 0.000000 1.000000 1.000000 1.000000
309 1 177.384733 106.537014 177.384733 106.537014 0.000000 0.000000 1.000000 1.000000 1.000000
310 1 34.403011 0.123340 34.403011 213.830451 0.000000 0.000000 1.000000 1.000000 1.000000
311 1 109.096734 36.833037 109.096734 36.833037 -0.000000 0.000000 1.000000 1.000000 1.000000
312 1 212.156858 81.172242 -1.550253 81.172242 -0.000000 -0.000000 1.000000 1.000000 1.000000
313 1 84.397417 20.825937 84.397417 20.825937 -0.000000 -0.000000 1.000000 1.000000 1.000000
314 1 184.687573 161.282281 184.687573 161.282281 0.000000 0.000000 1.000000 1.000000 1.000000
315 1 118.955506 149.956323 118.955506 149.956323 -0.000000 -0.000000 1.000000 1.000000 1.000000
316 1 59.324657 195.640434 59.324657 195.640434 -0.000000 -0.000000 1.000000 1.000000 1.000000
317 1 203.573402 142.793551 203.573402 142.793551 0.000000 -0.000000 1.000000 1.000000 1.000000
318 1 0.467761 147.699335 0.467761 147.699335 0.000000 -0.000000 1.000000 1.000000 1.000000