ITEM: TIMESTEP
900.000000
ITEM: NUMBER OF ATOMS
5000
ITEM: BOX BOUNDS xy xz yz
0 267.391671 0
0 267.391671 0
0 2 0
ITEM: ATOMS id type x y xu yu vx vy radius m z
0 1 176.674859 131.535002 176.674859 131.535002 0.000000 -0.000000 1.000000 1.000000 1.000000
1 1 165.979705 103.201797 165.979705 103.201797 0.000000 -0.000000 1.000000 1.000000 1.000000
2 1 58.561255 251.086275 58.561255 251.086275 -0.000000 0.000000 1.000000 1.000000 1.000000
3 1 206.547727 232.200432 206.547727 232.200432 -0.000000 0.000000 1.000000 1.000000 1.000000
4 1 259.311858 132.267005 259.311858 132.267005 -0.000000 -0.000000 1.000000 1.000000 1.000000
5 1 205.673641 89.469415 205.673641 89.469415 0.000000 0.000000 1.000000 1.000000 1.000000
6 1 255.252943 99.431038 255.252943 99.431038 0.000000 -0.000000 1.000000 1.000000 1.000000
7 1 182.936708 91.564308 182.936708 91.564308 -0.000000 -0.000000 1.000000 1.000000 1.000000
8 1 61.119789 21.937400 61.119789 21.937400 0.000000 0.000000 1.000000 1.000000 1.000000
9 1 50.143258 46.577580 50.143258 46.577580 0.000000 -0.000000 1.000000 1.000000 1.000000
10 1 171.768274 197.925022 171.768274 197.925022 0.000000 0.000000 1.000000 1.000000 1.000000
11 1 265.310282 244.760993 265.310282 244.760993 -0.000000 0.000000 1.000000 1.000000 1.000000
12 1 231.866329 116.637325 231.866329 116.637325 0.000000 -0.000000 1.000000 1.000000 1.000000
13 1 220.828603 132.425590 220.828603 132.425590 0.000000 -0.000000 1.000000 1.000000 1.000000
14 1 195.397998 265.563731 195.397998 -1.827940 -0.000000 0.000000 1.000000 1.000000 1.000000
15 1 253.341656 53.594332 253.341656 53.594332 0.000000 0.000000 1.000000 1.000000 1.000000
16 1 208.341468 51.387993 208.341468 51.387993 -0.000000 0.000000 1.000000 1.000000 1.000000
17 1 31.460296 32.432964 31.460296 32.432964 -0.000000 -0.000000 1.000000 1.000000 1.000000
18 1 207.492283 63.895300 207.492283 63.895300 0.000000 0.000000 1.000000 1.000000 1.000000
19 1 223.131111 163.788819 223.131111 163.788819 0.000000 0.000000 1.000000 1.000000 1.000000
20 1 36.800853 106.459199 36.800853 106.459199 0.000000 0.000000 1.000000 1.000000 1.000000
21 1 126.905058 266.603737 126.905058 -0.787934 0.000000 -0.000000 1.000000 1.000000 1.000000
22 1 267.071504 153.190389 -0.320167 153.190389 0.000000 0.000000 1.000000 1.000000 1.000000
23 1 159.744693 259.671075 159.744693 259.671075 0.000000 -0.000000 1.000000 1.000000 1.000000
24 1 242.509534 116.971869 242.509534 116.971869 0.000000 0.000000 1.000000 1.000000 1.000000
25 1 58.651447 15.633687 58.651447 15.633687 0.000000 0.000000 1.000000 1.000000 1.000000
26 1 220.432677 93.916174 220.432677 93.916174 -0.000000 0.000000 1.000000 1.000000 1.000000
27 1 125.723373 213.185718 125.723373 213.185718 -0.000000 -0.000000 1.000000 1.000000 1.000000
28 1 49.286818 66.869253 49.286818 66.869253 0.000000 -0.000000 1.000000 1.000000 1.000000
29 1 114.946958 114.084704 114.946958 114.084704 -0.000000 0.000000 1.000000 1.000000 1.000000
30 1 250.045229 60.608007 250.045229 60.608007 -0.000000 -0.000000 1.000000 1.000000 1.000000
31 1 150.517534 4.885579 150.517534 4.885579 -0.000000 0.000000 1.000000 1.000000 1.000000
32 1 41.508741 124.541806 41.508741 124.541806 0.000000 -0.000000 1.000000 1.000000 1.000000
33 1 35.705554 128.108368 35.705554 128.108368 -0.000000 0.000000 1.000000 1.000000 1.000000
34 1 119.140257 254.069700 119.140257 254.069700 -0.000000 -0.000000 1.000000 1.000000 1.000000
35 1 110.864733 8.361744 110.864733 8.361744 0.000000 0.000000 1.000000 1.000000 1.000000
36 1 33.986236 246.938518 33.986236 246.938518 -0.000000 0.000000 1.000000 1.000000 1.000000
37 1 191.526676 235.325841 191.526676 235.325841 0.000000 -0.000000 1.000000 1.000000 1.000000
38 1 26.203316 184.600416 26.203316 184.600416 -0.000000 0.000000 1.000000 1.000000 1.000000
39 1 116.682207 63.396211 116.682207 63.396211 -0.000000 0.000000 1.000000 1.000000 1.000000
40 1 207.327043 222.666846 207.327043 222.666846 0.000000 -0.000000 1.000000 1.000000 1.000000
41 1 47.530089 161.181115 47.530089 161.181115 0.000000 -0.000000 1.000000 1.000000 1.000000
42 1 195.365705 56.309573 195.365705 56.309573 0.000000 -0.000000 1.000000 1.000000 1.000000
43 1 90.474405 146.049774 90.474405 146.049774 0.000000 0.000000 1.000000 1.000000 1.000000
44 1 25.588006 26.987314 25.588006 26.987314 -0.000000 -0.000000 1.000000 1.000000 1.000000
45 1 79.289274 75.577877 79.289274 75.577877 -0.000000 0.000000 1.000000 1.000000 1.000000
46 1 252.058799 188.003277 252.058799 188.003277 0.000000 0.000000 1.000000 1.000000 1.000000
47 1 205.468694 197.227391 205.468694 197.227391 -0.000000 -0.000000 1.000000 1.000000 1.000000
48 1 205.549792 86.971323 205.549792 86.971323 0.000000 -0.000000 1.000000 1.000000 1.000000
49 1 73.899023 39.856384 73.899023 39.856384 0.000000 0.000000 1.000000 1.000000 1.000000
50 1 153.104055 113.490469 153.104055 113.490469 0.000000 0.000000 1.000000 1.000000 1.000000
51 1 15.131028 67.676403 15.131028 67.676403 -0.000000 0.000000 1.000000 1.000000 1.000000
52 1 55.830490 53.771002 55.830490 53.771002 -0.000000 -0.000000 1.000000 1.000000 1.000000
53 1 208.836585 38.325547 208.836585 38.325547 0.000000 0.000000 1.000000 1.000000 1.000000
54 1 85.361082 50.178665 85.361082 50.178665 -0.000000 0.000000 1.000000 1.000000 1.000000
55 1 248.632314 180.458043 248.632314 180.458043 -0.000000 0.000000 1.000000 1.000000 1.000000
56 1 129.135871 264.181043 129.135871 264.181043 0.000000 0.000000 1.000000 1.000000 1.000000
57 1 116.112362 129.081003 116.112362 129.081003 -0.000000 -0.000000 1.000000 1.000000 1.000000
58 1 222.024715 185.443718 222.024715 185.443718 -0.000000 0.000000 1.000000 1.000000 1.000000
59 1 65.467370 173.744426 65.467370 173.744426 -0.000000 -0.000000 1.000000 1.000000 1.000000
60 1 244.883307 217.388741 244.883307 217.388741 -0.000000 0.000000 1.000000 1.000000 1.000000
61 1 251.773011 76.133820 251.773011 76.133820 0.000000 0.000000 1.000000 1.000000 1.000000
62 1 137.106471 89.494942 137.106471 89.494942 0.000000 0.000000 1.000000 1.000000 1.000000
63 1 188.775847 167.160806 188.775847 167.160806 -0.000000 -0.000000 1.000000 1.000000 1.000000
64 1 232.930947 66.164224 232.930947 66.164224 0.000000 0.000000 1.000000 1.000000 1.000000
65 1 227.909941 79.533946 227.909941 79.533946 -0.000000 0.000000 1.000000 1.000000 1.000000
66 1 207.421767 218.509256 207.421767 218.509256 -0.000000 0.000000 1.000000 1.000000 1.000000
67 1 264.840883 231.314475 -2.550788 231.314475 -0.000000 -0.000000 1.000000 1.000000 1.000000
68 1 214.860631 2.548306 214.860631 269.939977 -0.000000 0.000000 1.000000 1.000000 1.000000
69 1 49.254033 120.588750 49.254033 120.588750 -0.000000 0.000000 1.000000 1.000000 1.000000
70 1 258.333810 17.040873 -9.057861 17.040873 0.000000 0.000000 1.000000 1.000000 1.000000
71 1 248.130307 83.705330 248.130307 83.705330 0.000000 -0.000000 1.000000 1.000000 1.000000
72 1 61.018392 124.830783 61.018392 124.830783 -0.000000 -0.000000 1.000000 1.000000 1.000000
73 1 75.057149 118.776228 75.057149 118.776228 0.000000 0.000000 1.000000 1.000000 1.000000
74 1 262.975619 168.926702 -4.416052 168.926702 0.000000 0.000000 1.000000 1.000000 1.000000
75 1 3.918322 167.554489 3.918322 167.554489 -0.000000 -0.000000 1.000000 1.000000 1.000000
76 1 234.393583 91.900591 234.393583 91.900591 -0.000000 -0.000000 1.000000 1.000000 1.000000
77 1 214.181920 254.552772 214.181920 254.552772 -0.000000 -0.000000 1.000000 1.000000 1.000000
78 1 179.566035 223.914919 179.566035 223.914919 -0.000000 -0.000000 1.000000 1.000000 1.000000
79 1 65.191814 23.924779 65.191814 23.924779 0.000000 -0.000000 1.000000 1.000000 1.000000
80 1 141.091407 3.976903 141.091407 271.368574 -0.000000 -0.000000 1.000000 1.000000 1.000000
81 1 164.917679 204.103166 164.917679 204.103166 -0.000000 0.000000 1.000000 1.000000 1.000000
82 1 261.691093 195.879964 261.691093 195.879964 -0.000000 -0.000001 1.000000 1.000000 1.000000
83 1 203.586934 124.620218 203.586934 124.620218 -0.000000 0.000000 1.000000 1.000000 1.000000
84 1 33.309205 122.894091 33.309205 122.894091 -0.000000 0.000000 1.000000 1.000000 1.000000
85 1 187.243349 187.545528 187.243349 187.545528 0.000000 -0.000000 1.000000 1.000000 1.000000
86 1 39.616080 119.352690 39.616080 119.352690 0.000000 -0.000000 1.000000 1.000000 1.000000
87 1 155.210540 149.420252 155.210540 149.420252 0.000000 0.000000 1.000000 1.000000 1.000000
88 1 177.021506 248.491431 177.021506 248.491431 -0.000000 0.000000 1.000000 1.000000 1.000000
89 1 245.573971 168.283330 245.573971 168.283330 -0.000000 -0.000000 1.000000 1.000000 1.000000
90 1 84.640048 117.350574 84.640048 117.350574 0.000000 -0.000000 1.000000 1.000000 1.000000
91 1 106.974495 107.151463 106.974495 107.151463 0.000000 0.000000 1.000000 1.000000 1.000000
92 1 60.278844 68.034526 60.278844 68.034526 0.000000 -0.000000 1.000000 1.000000 1.000000
93 1 32.149717 195.163079 32.149717 195.163079 -0.000000 -0.000000 1.000000 1.000000 1.000000
94 1 174.374445 67.697186 174.374445 67.697186 -0.000000 -0.000000 1.000000 1.000000 1.000000
95 1 179.077112 111.466337 179.077112 111.466337 0.000000 0.000000 1.000000 1.000000 1.000000
96 1 180.831562 41.233078 180.831562 41.233078 0.000000 -0.000000 1.000000 1.000000 1.000000
97 1 119.180692 42.556928 119.180692 42.556928 0.000000 -0.000000 1.000000 1.000000 1.000000
98 1 94.650205 51.913954 94.650205 51.913954 0.000000 0.000000 1.000000 1.000000 1.000000
99 1 54.893450 155.341609 54.893450 155.341609 0.000000 0.000000 1.000000 1.000000 1.000000
100 1 232.271244 73.964122 232.271244 73.964122 0.000000 0.000000 1.000000 1.000000 1.000000
101 1 234.812648 58.402740 234.812648 58.402740 0.000000 0.000000 1.000000 1.000000 1.000000
102 1 160.912762 86.350856 160.912762 86.350856 -0.000000 -0.000000 1.000000 1.000000 1.000000
103 1 137.601176 70.402244 137.601176 70.402244 0.000000 -0.000000 1.000000 1.000000 1.000000
104 1 96.684343 256.902327 96.684343 256.902327 -0.000000 0.000000 1.000000 1.000000 1.000000
105 1 105.157518 70.586222 105.157518 70.586222 0.000000 0.000000 1.000000 1.000000 1.000000
106 1 133.541362 201.533615 133.541362 201.533615 -0.000000 0.000000 1.000000 1.000000 1.000000
107 1 155.153298 52.366584 155.153298 52.366584 0.000000 0.000000 1.000000 1.000000 1.000000
108 1 66.786089 262.609025 66.786089 262.609025 -0.000000 -0.000000 1.000000 1.000000 1.000000
109 1 182.834488 64.353370 182.834488 64.353370 -0.000000 0.000000 1.000000 1.000000 1.000000
110 1 95.391600 180.625488 95.391600 180.625488 -0.000000 -0.000000 1.000000 1.000000 1.000000
111 1 261.281076 141.911699 261.281076 141.911699 0.000000 0.000000 1.000000 1.000000 1.000000
112 1 140.373489 14.552505 140.373489 14.552505 -0.000000 -0.000000 1.000000 1.000000 1.000000
113 1 168.805083 0.890179 168.805083 0.890179 -0.000000 0.000000 1.000000 1.000000 1.000000
114 1 264.284571 95.853817 264.284571 95.853817 -0.000000 0.000000 1.000000 1.000000 1.000000
115 1 242.584710 98.698772 242.584710 98.698772 0.000000 0.000000 1.000000 1.000000 1.000000
116 1 204.282281 91.279257 204.282281 91.279257 0.000000 -0.000000 1.000000 1.000000 1.000000
117 1 106.193673 179.425537 106.193673 179.425537 -0.000000 -0.000000 1.000000 1.000000 1.000000
118 1 50.421657 202.327918 50.421657 202.327918 0.000000 0.000000 1.000000 1.000000 1.000000
119 1 99.250932 84.872614 99.250932 84.872614 0.000000 0.000000 1.000000 1.000000 1.000000
120 1 218.206095 117.013766 218.206095 117.013766 0.000000 -0.000000 1.000000 1.000000 1.000000
121 1 181.733609 162.828481 181.733609 162.828481 -0.000000 0.000000 1.000000 1.000000 1.000000
122 1 219.034410 206.748954 219.034410 206.748954 -0.000000 -0.000000 1.000000 1.000000 1.000000
123 1 178.430302 231.110947 178.430302 231.110947 0.000000 -0.000000 1.000000 1.000000 1.000000
124 1 239.030395 23.417842 239.030395 23.417842 0.000000 0.000000 1.000000 1.000000 1.000000
125 1 146.677440 131.389051 146.677440 131.389051 -0.000000 0.000000 1.000000 1.000000 1.000000
126 1 196.653576 125.599609 196.653576 125.599609 -0.000000 -0.000000 1.000000 1.000000 1.000000
127 1 147.137300 266.746628 147.137300 -0.645043 -0.000000 0.000000 1.000000 1.000000 1.000000
128 1 226.359085 246.626728 226.359085 246.626728 0.000000 -0.000000 1.000000 1.000000 1.000000
129 1 109.480081 33.199181 109.480081 33.199181 -0.000000 0.000000 1.000000 1.000000 1.000000
130 1 130.951712 244.421604 130.951712 244.421604 -0.000000 0.000000 1.000000 1.000000 1.000000
131 1 154.313118 86.444118 154.313118 86.444118 0.000000 0.000000 1.000000 1.000000 1.000000
132 1 201.078504 183.536764 201.078504 183.536764 0.000000 0.000000 1.000000 1.000000 1.000000
133 1 240.607740 190.099797 240.607740 190.099797 0.000000 0.000000 1.000000 1.000000 1.000000
134 1 11.248118 207.423200 278.639789 207.423200 0.000000 0.000000 1.000000 1.000000 1.000000
135 1 145.418580 216.809599 145.418580 216.809599 -0.000000 -0.000000 1.000000 1.000000 1.000000
136 1 50.296725 112.278192 50.296725 112.278192 -0.000000 -0.000000 1.000000 1.000000 1.000000
137 1 106.910118 120.154093 106.910118 120.154093 0.000000 0.000000 1.000000 1.000000 1.000000
138 1 141.692167 112.915829 141.692167 112.915829 0.000000 0.000000 1.000000 1.000000 1.000000
139 1 202.598017 153.094187 202.598017 153.094187 0.000000 -0.000000 1.000000 1.000000 1.000000
140 1 112.094438 139.068738 112.094438 139.068738 0.000000 -0.000000 1.000000 1.000000 1.000000
141 1 19.536637 245.912589 19.536637 245.912589 -0.000000 -0.000000 1.000000 1.000000 1.000000
142 1 259.076120 99.681599 259.076120 99.681599 -0.000000 0.000000 1.000000 1.000000 1.000000
143 1 138.528697 95.505120 138.528697 95.505120 0.000000 0.000000 1.000000 1.000000 1.000000
144 1 59.493205 218.902722 59.493205 218.902722 0.000000 0.000000 1.000000 1.000000 1.000000
145 1 178.915877 98.641288 178.915877 98.641288 0.000000 0.000000 1.000000 1.000000 1.000000
146 1 15.621104 265.666055 15.621104 -1.725616 -0.000000 -0.000000 1.000000 1.000000 1.000000
147 1 186.373274 257.498291 186.373274 257.498291 -0.000000 0.000000 1.000000 1.000000 1.000000
148 1 120.340887 171.212973 120.340887 171.212973 -0.000000 0.000000 1.000000 1.000000 1.000000
149 1 242.316533 211.531003 242.316533 211.531003 0.000000 -0.000000 1.000000 1.000000 1.000000
150 1 178.179015 264.266366 178.179015 264.266366 -0.000000 0.000000 1.000000 1.000000 1.000000
151 1 143.523416 81.916152 143.523416 81.916152 -0.000000 0.000000 1.000000 1.000000 1.000000
152 1 239.227845 96.356913 239.227845 96.356913 -0.000000 0.000000 1.000000 1.000000 1.000000
153 1 9.576307 4.476983 9.576307 4.476983 -0.000000 -0.000000 1.000000 1.000000 1.000000
154 1 179.231463 47.951129 179.231463 47.951129 -0.000000 -0.000000 1.000000 1.000000 1.000000
155 1 37.717956 28.098930 37.717956 28.098930 0.000000 -0.000000 1.000000 1.000000 1.000000
156 1 248.045469 196.477475 248.045469 196.477475 -0.000000 0.000000 1.000000 1.000000 1.000000
157 1 64.556559 65.756230 64.556559 65.756230 0.000000 0.000000 1.000000 1.000000 1.000000
158 1 62.339540 58.312741 62.339540 58.312741 0.000000 -0.000000 1.000000 1.000000 1.000000
159 1 70.322903 146.366992 70.322903 146.366992 -0.000000 0.000000 1.000000 1.000000 1.000000
160 1 203.438172 105.882077 203.438172 105.882077 -0.000000 -0.000000 1.000000 1.000000 1.000000
161 1 193.149970 223.304706 193.149970 223.304706 0.000000 -0.000000 1.000000 1.000000 1.000000
162 1 238.362120 199.882767 238.362120 199.882767 0.000000 -0.000000 1.000000 1.000000 1.000000
163 1 161.312673 161.547067 161.312673 161.547067 -0.000000 -0.000000 1.000000 1.000000 1.000000
164 1 176.022664 36.584057 176.022664 36.584057 -0.000000 0.000000 1.000000 1.000000 1.000000
165 1 201.184967 34.942677 201.184967 34.942677 0.000000 -0.000000 1.000000 1.000000 1.000000
166 1 172.023756 74.075323 172.023756 74.075323 -0.000000 -0.000000 1.000000 1.000000 1.000000
167 1 247.102182 56.333092 247.102182 56.333092 0.000000 -0.000000 1.000000 1.000000 1.000000
168 1 37.411753 85.094632 37.411753 85.094632 -0.000000 0.000000 1.000000 1.000000 1.000000
169 1 48.169802 105.368178 48.169802 105.368178 -0.000000 0.000000 1.000000 1.000000 1.000000
170 1 30.829383 211.120133 30.829383 211.120133 0.000000 -0.000000 1.000000 1.000000 1.000000
171 1 34.719668 159.891331 34.719668 159.891331 0.000000 -0.000000 1.000000 1.000000 1.000000
172 1 53.636129 214.865422 53.636129 214.865422 -0.000000 -0.000000 1.000000 1.000000 1.000000
173 1 185.632805 222.698800 185.632805 222.698800 -0.000000 -0.000000 1.000000 1.000000 1.000000
174 1 87.513090 126.013119 87.513090 126.013119 -0.000000 0.000000 1.000000 1.000000 1.000000
175 1 224.003856 5.138625 224.003856 5.138625 -0.000000 -0.000000 1.000000 1.000000 1.000000
176 1 101.989016 116.091291 101.989016 116.091291 -0.000000 0.000000 1.000000 1.000000 1.000000
177 1 100.821092 257.498730 100.821092 257.498730 0.000000 -0.000000 1.000000 1.000000 1.000000
178 1 7.175892 126.206659 7.175892 126.206659 0.000000 -0.000000 1.000000 1.000000 1.000000
179 1 146.138351 56.258785 146.138351 56.258785 0.000000 -0.000000 1.000000 1.000000 1.000000
180 1 225.627485 120.115272 225.627485 120.115272 -0.000000 -0.000000 1.000000 1.000000 1.000000
181 1 11.701586 11.036992 11.701586 278.428663 0.000000 -0.000000 1.000000 1.000000 1.000000
182 1 189.600705 8.854143 189.600705 276.245814 -0.000000 -0.000000 1.000000 1.000000 1.000000
183 1 65.565088 129.524436 65.565088 129.524436 0.000000 -0.000000 1.000000 1.000000 1.000000
184 1 57.117361 205.921032 57.117361 205.921032 0.000000 -0.000000 1.000000 1.000000 1.000000
185 1 10.541245 243.775619 10.541245 243.775619 -0.000000 0.000000 1.000000 1.000000 1.000000
186 1 28.575239 49.205960 28.575239 49.205960 -0.000000 -0.000000 1.000000 1.000000 1.000000
187 1 120.569116 155.458241 120.569116 155.458241 0.000000 -0.000000 1.000000 1.000000 1.000000
188 1 204.210245 222.045026 204.210245 222.045026 -0.000000 0.000000 1.000000 1.000000 1.000000
189 1 54.702044 146.649586 54.702044 146.649586 -0.000000 -0.000000 1.000000 1.000000 1.000000
190 1 66.795069 204.064476 66.795069 204.064476 -0.000000 -0.000000 1.000000 1.000000 1.000000
191 1 191.858172 164.172293 191.858172 164.172293 0.000000 -0.000000 1.000000 1.000000 1.000000
192 1 45.642795 101.612152 45.642795 101.612152 -0.000000 0.000000 1.000000 1.000000 1.000000
193 1 234.797044 242.166674 234.797044 242.166674 -0.000000 0.000000 1.000000 1.000000 1.000000
194 1 62.784681 145.930530 62.784681 145.930530 -0.000000 -0.000000 1.000000 1.000000 1.000000
195 1 204.513505 4.233804 204.513505 4.233804 -0.000000 -0.000000 1.000000 1.000000 1.000000
196 1 202.897630 54.892739 202.897630 54.892739 0.000000 -0.000000 1.000000 1.000000 1.000000
197 1 243.333184 185.636884 243.333184 185.636884 0.000000 0.000000 1.000000 1.000000 1.000000
198 1 204.111150 77.698139 204.111150 77.698139 -0.000000 -0.000000 1.000000 1.000000 1.000000
199 1 30.478688 52.403286 30.478688 52.403286 0.000000 0.000000 1.000000 1.000000 1.000000
200 1 227.205710 67.129538 227.205710 67.129538 0.000000 0.000000 1.000000 1.000000 1.000000
201 1 104.276311 172.783530 104.276311 172.783530 0.000000 0.000000 1.000000 1.000000 1.000000
202 1 150.160393 185.278247 150.160393 185.278247 -0.000000 -0.000000 1.000000 1.000000 1.000000
203 1 149.333310 43.908295 149.333310 43.908295 -0.000000 -0.000000 1.000000 1.000000 1.000000
204 1 244.477690 143.565535 244.477690 143.565535 0.000000 0.000000 1.000000 1.000000 1.000000
205 1 123.718149 157.462448 123.718149 157.462448 0.000000 0.000000 1.000000 1.000000 1.000000
206 1 76.634999 43.627263 76.634999 43.627263 0.000000 -0.000000 1.000000 1.000000 1.000000
207 1 207.887673 196.891301 207.887673 196.891301 0.000000 -0.000000 1.000000 1.000000 1.000000
208 1 66.035373 230.019196 66.035373 230.019196 0.000000 -0.000000 1.000000 1.000000 1.000000
209 1 16.520275 82.556138 16.520275 82.556138 0.000000 -0.000000 1.000000 1.000000 1.000000
210 1 23.721136 193.665438 23.721136 193.665438 -0.000000 0.000000 1.000000 1.000000 1.000000
211 1 177.585223 118.839619 177.585223 118.839619 -0.000000 0.000000 1.000000 1.000000 1.000000
212 1 70.914094 108.465290 70.914094 108.465290 -0.000000 -0.000000 1.000000 1.000000 1.000000
213 1 29.952273 20.369054 29.952273 20.369054 0.000000 0.000000 1.000000 1.000000 1.000000
214 1 115.180645 108.567382 115.180645 108.567382 -0.000000 0.000000 1.000000 1.000000 1.000000
215 1 60.109940 57.251272 60.109940 57.251272 0.000000 0.000000 1.000000 1.000000 1.000000
216 1 181.190924 197.044845 181.190924 197.044845 -0.000000 0.000000 1.000000 1.000000 1.000000
217 1 244.708901 14.440552 244.708901 14.440552 -0.000000 0.000000 1.000000 1.000000 1.000000
218 1 29.508023 22.997195 29.508023 22.997195 0.000000 -0.000000 1.000000 1.000000 1.000000
219 1 156.438284 222.567415 156.438284 222.567415 0.000000 0.000000 1.000000 1.000000 1.000000
220 1 79.270369 86.540706 79.270369 86.540706 0.000000 -0.000000 1.000000 1.000000 1.000000
221 1 45.873526 81.061338 45.873526 81.061338 0.000000 -0.000000 1.000000 1.000000 1.000000
222 1 12.351275 3.136735 12.351275 3.136735 -0.000000 0.000000 1.000000 1.000000 1.000000
223 1 142.689231 59.684038 142.689231 59.684038 0.000000 -0.000000 1.000000 1.000000 1.000000
224 1 124.409452 81.397483 124.409452 81.397483 0.000000 -0.000000 1.000000 1.000000 1.000000
225 1 190.355940 248.909882 190.355940 248.909882 -0.000000 -0.000000 1.000000 1.000000 1.000000
226 1 169.259784 221.899192 169.259784 221.899192 0.000000 0.000000 1.000000 1.000000 1.000000
227 1 150.576056 11.697933 150.576056 11.697933 -0.000000 -0.000000 1.000000 1.000000 1.000000
228 1 217.972484 1.890579 217.972484 269.282250 0.000000 0.000000 1.000000 1.000000 1.000000
229 1 194.035878 11.697227 194.035878 11.697227 -0.000000 -0.000000 1.000000 1.000000 1.000000
230 1 236.651225 146.098398 236.651225 146.098398 0.000000 -0.000000 1.000000 1.000000 1.000000
231 1 213.431595 74.808388 213.431595 74.808388 0.000000 0.000000 1.000000 1.000000 1.000000
232 1 161.291327 60.750098 161.291327 60.750098 -0.000000 0.000000 1.000000 1.000000 1.000000
233 1 180.999278 96.806266 180.999278 96.806266 0.000000 -0.000000 1.000000 1.000000 1.000000
234 1 59.721061 19.558814 59.721061 19.558814 0.000000 0.000000 1.000000 1.000000 1.000000
235 1 184.023433 32.392791 184.023433 32.392791 -0.000000 -0.000000 1.000000 1.000000 1.000000
236 1 175.728648 261.929092 175.728648 -5.462579 -0.000000 -0.000000 1.000000 1.000000 1.000000
237 1 257.215493 238.934154 -10.176178 238.934154 0.000000 -0.000000 1.000000 1.000000 1.000000
238 1 223.556556 242.762862 223.556556 242.762862 0.000000 0.000000 1.000000 1.000000 1.000000
239 1 145.159418 152.165030 145.159418 152.165030 0.000000 -0.000000 1.000000 1.000000 1.000000
240 1 64.958404 55.861593 64.958404 55.861593 -0.000000 -0.000000 1.000000 1.000000 1.000000
241 1 172.225269 125.487665 172.225269 125.487665 0.000000 -0.000000 1.000000 1.000000 1.000000
242 1 37.023079 175.273154 37.023079 175.273154 -0.000000 -0.000000 1.000000 1.000000 1.000000
243 1 241.173229 239.477170 241.173229 239.477170 0.000000 0.000000 1.000000 1.000000 1.000000
244 1 102.021101 232.816837 102.021101 232.816837 0.000000 0.000000 1.000000 1.000000 1.000000
245 1 60.298747 239.335359 60.298747 239.335359 0.000000 0.000000 1.000000 1.000000 1.000000
246 1 20.685952 64.563347 20.685952 64.563347 -0.000000 -0.000000 1.000000 1.000000 1.000000
247 1 44.418487 132.027743 44.418487 132.027743 -0.000000 -0.000000 1.000000 1.000000 1.000000
248 1 171.287653 160.872543 171.287653 160.872543 -0.000000 0.000000 1.000000 1.000000 1.000000
249 1 166.655278 265.178819 166.655278 265.178819 0.000000 -0.000000 1.000000 1.000000 1.000000
250 1 48.781013 146.096017 48.781013 146.096017 -0.000000 -0.000000 1.000000 1.000000 1.000000
251 1 182.641318 2.367685 182.641318 2.367685 -0.000000 0.000000 1.000000 1.000000 1.000000
252 1 73.647908 66.333248 73.647908 66.333248 -0.000000 0.000000 1.000000 1.000000 1.000000
253 1 113.336181 23.890882 113.336181 23.890882 0.000000 -0.000000 1.000000 1.000000 1.000000
254 1 168.273514 36.153229 168.273514 36.153229 0.000000 -0.000000 1.000000 1.000000 1.000000
255 1 179.661186 151.819124 179.661186 151.819124 0.000000 -0.000000 1.000000 1.000000 1.000000
256 1 141.530891 91.781765 141.530891 91.781765 -0.000000 -0.000000 1.000000 1.000000 1.000000
257 1 165.587052 10.603449 165.587052 10.603449 -0.000000 0.000000 1.000000 1.000000 1.000000
258 1 1.895772 260.147435 269.287443 260.147435 -0.000000 0.000000 1.000000 1.000000 1.000000
259 1 258.711462 143.652782 258.711462 143.652782 -0.000000 -0.000000 1.000000 1.000000 1.000000
260 1 186.512873 190.610322 186.512873 190.610322 -0.000000 -0.000000 1.000000 1.000000 1.000000
261 1 196.655045 178.961845 196.655045 178.961845 0.000000 0.000000 1.000000 1.000000 1.000000
262 1 156.737894 94.943522 156.737894 94.943522 0.000000 0.000000 1.000000 1.000000 1.000000
263 1 115.844554 155.383068 115.844554 155.383068 -0.000000 -0.000000 1.000000 1.000000 1.000000
264 1 230.106191 173.897405 230.106191 173.897405 -0.000000 0.000000 1.000000 1.000000 1.000000
265 1 180.314606 248.939902 180.314606 248.939902 0.000000 -0.000000 1.000000 1.000000 1.000000
266 1 49.666766 6.931170 49.666766 6.931170 0.000000 0.000000 1.000000 1.000000 1.000000
267 1 83.851475 237.878546 83.851475 237.878546 0.000000 0.000000 1.000000 1.000000 1.000000
268 1 193.615104 244.220120 193.615104 244.220120 0.000000 -0.000000 1.000000 1.000000 1.000000
269 1 66.600653 237.504473 66.600653 237.504473 -0.000000 0.000000 1.000000 1.000000 1.000000
270 1 102.647190 149.755821 102.647190 149.755821 0.000000 0.000000 1.000000 1.000000 1.000000
271 1 20.257788 54.331166 20.257788 54.331166 0.000000 0.000000 1.000000 1.000000 1.000000
272 1 56.480065 175.730938 56.480065 175.730938 -0.000000 -0.000000 1.000000 1.000000 1.000000
273 1 184.897359 206.087235 184.897359 206.087235 0.000000 0.000000 1.000000 1.000000 1.000000
274 1 49.189688 110.060103 49.189688 110.060103 0.000000 -0.000000 1.000000 1.000000 1.000000
275 1 18.464563 253.263270 18.464563 253.263270 0.000000 0.000000 1.000000 1.000000 1.000000
276 1 194.426213 143.083945 194.426213 143.083945 -0.000000 0.000000 1.000000 1.000000 1.000000
277 1 162.597469 147.421910 162.597469 147.421910 -0.000000 0.000000 1.000000 1.000000 1.000000
278 1 82.340592 78.512593 82.340592 78.512593 0.000000 0.000000 1.000000 1.000000 1.000000
279 1 143.017468 233.192605 143.017468 233.192605 0.000000 0.000000 1.000000 1.000000 1.000000
280 1 86.684533 159.973932 86.684533 159.973932 0.000000 0.000000 1.000000 1.000000 1.000000
281 1 89.864879 266.709726 89.864879 -0.681945 -0.000000 0.000000 1.000000 1.000000 1.000000
282 1 123.790612 204.868615 123.790612 204.868615 -0.000000 0.000000 1.000000 1.000000 1.000000
283 1 103.045894 249.999806 103.045894 249.999806 0.000000 -0.000000 1.000000 1.000000 1.000000
284 1 15.875178 35.955327 15.875178 35.955327 -0.000000 0.000000 1.000000 1.000000 1.000000
285 1 211.662502 57.621073 211.662502 57.621073 -0.000000 0.000000 1.000000 1.000000 1.000000
286 1 137.340209 98.417420 137.340209 98.417420 0.000000 0.000000 1.000000 1.000000 1.000000
287 1 227.484967 208.971040 227.484967 208.971040 0.000000 -0.000000 1.000000 1.000000 1.000000
288 1 57.184599 156.571564 57.184599 156.571564 -0.000000 0.000000 1.000000 1.000000 1.000000
289 1 42.109664 54.692406 42.109664 54.692406 -0.000000 0.000000 1.000000 1.000000 1.000000
290 1 234.442783 141.184889 234.442783 141.184889 0.000000 0.000000 1.000000 1.000000 1.000000
291 1 127.437290 12.242885 127.437290 12.242885 -0.000000 -0.000000 1.000000 1.000000 1.000000
292 1 258.583100 38.001544 258.583100 38.001544 0.000000 0.000000 1.000000 1.000000 1.000000
293 1 206.353652 170.029246 206.353652 170.029246 -0.000000 0.000000 1.000000 1.000000 1.000000
294 1 113.495257 147.230951 113.495257 147.230951 -0.000000 0.000000 1.000000 1.000000 1.000000
295 1 42.002485 27.637935 42.002485 27.637935 0.000000 -0.000000 1.000000 1.000000 1.000000
296 1 142.435478 170.942921 142.435478 170.942921 -0.000000 -0.000000 1.000000 1.000000 1.000000
297 1 151.982476 71.430012 151.982476 71.430012 0.000000 0.000000 1.000000 1.000000 1.000000
298 1 25.993241 212.443280 25.993241 212.443280 0.000000 0.000000 1.000000 1.000000 1.000000
299 1 249.149849 127.372935 249.149849 127.372935 0.000000 -0.000000 1.000000 1.000000 1.000000
300 1 84.987257 97.086324 84.987257 97.086324 0.000000 0.000000 1.000000 1.000000 1.000000
301 1 184.173032 177.469971 184.173032 177.469971 -0.000000 -0.000000 1.000000 1.000000 1.000000
302 1 102.640000 259.496201 102.640000 259.496201 0.000000 -0.000000 1.000000 1.000000 1.000000
303 1 54.710626 127.303665 54.710626 127.303665 0.000000 -0.000000 1.000000 1.000000 1.000000
304 1 112.942270 97.935523 112.942270 97.935523 -0.000000 -0.000000 1.000000 1.000000 1.000000
305 1 265.317237 173.650771 -2.074434 173.650771 -0.000000 -0.000000 1.000000 1.000000 1.000000
306 1 169.972653 118.665690 169.972653 118.665690 -0.000000 -0.000000 1.000000 1.000000 1.000000
307 1 164.915835 175.139862 164.915835 175.139862 -0.000000 -0.000000 1.000000 1.000000 1.000000
308 1 163.236022 68.161854 163.236022 68.161854 -0.000000 -0.000000 1.000000 1.000000 1.000000
309 1 220.016427 54.539786 220.016427 54.539786 0.000000 0.000000 1.000000 1.000000 1.000000
310 1 171.706071 194.542917 171.706071 194.542917 0.000000 -0.000000 1.000000 1.000000 1.000000
311 1 248.272136 96.902258 248.272136 96.902258 -0.000000 0.000000 1.000000 1.000000 1.000000
312 1 155.683423 81.687110 155.683423 81.687110 0.000000 0.000000 1.000000 1.000000 1.000000
313 1 206.125561 241.952399 206.125561 241.952399 0.000000 0.000000 1.000000 1.000000 1.000000
314 1 237.944765 251.452813 237.944765 251.452813 0.000000 0.000000 1.000000 1.000000 1.000000
315 1 61.362128 119.692512 61.362128 119.692512 0.000000 -0.000000 1.000000 1.000000 1.000000
316 1 85.315585 181.989758 85.315585 181.989758 0.000000 0.000000 1.000000 1.000000 1.000000