ITEM: TIMESTEP
2800.000000
ITEM: NUMBER OF ATOMS
5000
ITEM: BOX BOUNDS xy xz yz
0 275.087957 0
0 275.087957 0
0 2 0
ITEM: ATOMS id type x y xu yu vx vy radius m z
0 1 157.688600 243.411437 157.688600 243.411437 0.000000 0.000000 1.000000 1.000000 1.000000
1 1 0.754164 178.738513 275.842121 178.738513 0.000000 -0.000000 1.000000 1.000000 1.000000
2 1 127.508015 2.770854 127.508015 2.770854 -0.000000 -0.000000 1.000000 1.000000 1.000000
3 1 47.444042 210.451535 47.444042 210.451535 -0.000000 0.000000 1.000000 1.000000 1.000000
4 1 89.689476 229.398823 89.689476 229.398823 -0.000000 0.000000 1.000000 1.000000 1.000000
5 1 112.179815 220.770145 112.179815 220.770145 0.000000 0.000000 1.000000 1.000000 1.000000
6 1 57.045849 192.620241 57.045849 192.620241 -0.000000 0.000000 1.000000 1.000000 1.000000
7 1 18.134001 109.553467 18.134001 109.553467 0.000000 0.000000 1.000000 1.000000 1.000000
8 1 124.398190 200.831144 124.398190 200.831144 0.000000 -0.000000 1.000000 1.000000 1.000000
9 1 257.989651 117.427856 257.989651 117.427856 -0.000000 -0.000000 1.000000 1.000000 1.000000
10 1 117.875819 114.514186 117.875819 114.514186 0.000000 0.000000 1.000000 1.000000 1.000000
11 1 7.672219 127.412877 282.760176 127.412877 -0.000000 0.000000 1.000000 1.000000 1.000000
12 1 171.877335 12.163969 171.877335 12.163969 0.000000 -0.000000 1.000000 1.000000 1.000000
13 1 37.675634 106.174434 37.675634 106.174434 0.000000 -0.000000 1.000000 1.000000 1.000000
14 1 37.457462 262.942029 37.457462 -12.145928 0.000000 0.000000 1.000000 1.000000 1.000000
15 1 246.946923 270.151017 246.946923 -4.936940 0.000000 -0.000000 1.000000 1.000000 1.000000
16 1 101.716896 25.325842 101.716896 25.325842 -0.000001 0.000000 1.000000 1.000000 1.000000
17 1 130.625537 263.328496 130.625537 263.328496 0.000000 0.000000 1.000000 1.000000 1.000000
18 1 155.224966 49.531606 155.224966 49.531606 -0.000000 -0.000000 1.000000 1.000000 1.000000
19 1 31.436263 171.681423 31.436263 171.681423 0.000000 0.000000 1.000000 1.000000 1.000000
20 1 48.093787 213.382184 48.093787 213.382184 0.000000 -0.000000 1.000000 1.000000 1.000000
21 1 175.163352 132.273128 175.163352 132.273128 -0.000000 0.000000 1.000000 1.000000 1.000000
22 1 109.235814 273.589717 109.235814 -1.498240 0.000000 -0.000000 1.000000 1.000000 1.000000
23 1 228.040370 62.500786 228.040370 62.500786 -0.000000 -0.000000 1.000000 1.000000 1.000000
24 1 68.846675 63.391713 68.846675 63.391713 0.000000 0.000000 1.000000 1.000000 1.000000
25 1 165.498420 37.641721 165.498420 37.641721 -0.000000 -0.000000 1.000000 1.000000 1.000000
26 1 82.291763 100.660133 82.291763 100.660133 0.000000 0.000000 1.000000 1.000000 1.000000
27 1 28.152449 168.218526 28.152449 168.218526 0.000000 -0.000000 1.000000 1.000000 1.000000
28 1 18.014120 131.482775 18.014120 131.482775 0.000000 0.000000 1.000000 1.000000 1.000000
29 1 200.708814 235.363561 200.708814 235.363561 -0.000000 0.000000 1.000000 1.000000 1.000000
30 1 198.120776 63.663496 198.120776 63.663496 0.000000 0.000000 1.000000 1.000000 1.000000
31 1 2.876695 47.605471 277.964652 47.605471 0.000000 -0.000000 1.000000 1.000000 1.000000
32 1 137.696639 244.871516 137.696639 244.871516 -0.000000 0.000000 1.000000 1.000000 1.000000
33 1 206.005763 108.475780 206.005763 108.475780 0.000000 -0.000000 1.000000 1.000000 1.000000
34 1 61.795486 7.390578 61.795486 282.478535 -0.000000 -0.000000 1.000000 1.000000 1.000000
35 1 76.237002 144.575997 76.237002 144.575997 -0.000000 -0.000000 1.000000 1.000000 1.000000
36 1 43.571752 83.680770 43.571752 83.680770 0.000000 -0.000000 1.000000 1.000000 1.000000
37 1 91.292841 190.783950 91.292841 190.783950 0.000000 0.000000 1.000000 1.000000 1.000000
38 1 94.682583 93.403893 94.682583 93.403893 0.000000 0.000000 1.000000 1.000000 1.000000
39 1 264.470781 36.090455 264.470781 36.090455 0.000000 -0.000000 1.000000 1.000000 1.000000
40 1 13.417651 178.472826 13.417651 178.472826 -0.000000 0.000000 1.000000 1.000000 1.000000
41 1 77.777031 176.261676 77.777031 176.261676 -0.000000 0.000000 1.000000 1.000000 1.000000
42 1 208.050505 230.486383 208.050505 230.486383 0.000000 -0.000000 1.000000 1.000000 1.000000
43 1 269.736493 177.335417 269.736493 177.335417 0.000000 -0.000000 1.000000 1.000000 1.000000
44 1 110.240079 222.622971 110.240079 222.622971 0.000000 -0.000000 1.000000 1.000000 1.000000
45 1 7.478335 2.994017 7.478335 278.081974 0.000000 0.000000 1.000000 1.000000 1.000000
46 1 143.064647 138.134722 143.064647 138.134722 -0.000000 0.000000 1.000000 1.000000 1.000000
47 1 202.366309 146.797888 202.366309 146.797888 0.000000 0.000000 1.000000 1.000000 1.000000
48 1 173.860632 125.469617 173.860632 125.469617 0.000000 -0.000000 1.000000 1.000000 1.000000
49 1 267.000513 96.332175 -8.087444 96.332175 0.000000 0.000000 1.000000 1.000000 1.000000
50 1 155.524565 85.588750 155.524565 85.588750 0.000000 0.000000 1.000000 1.000000 1.000000
51 1 228.814192 223.206818 228.814192 223.206818 -0.000000 -0.000000 1.000000 1.000000 1.000000
52 1 100.622766 6.490745 100.622766 281.578702 0.000000 -0.000000 1.000000 1.000000 1.000000
53 1 236.688229 158.470490 236.688229 158.470490 -0.000000 0.000000 1.000000 1.000000 1.000000
54 1 239.387682 225.522134 239.387682 225.522134 -0.000000 0.000000 1.000000 1.000000 1.000000
55 1 29.297160 242.442745 29.297160 242.442745 -0.000000 0.000000 1.000000 1.000000 1.000000
56 1 206.691484 17.823983 206.691484 17.823983 0.000000 -0.000000 1.000000 1.000000 1.000000
57 1 48.184100 223.175804 48.184100 223.175804 -0.000000 -0.000000 1.000000 1.000000 1.000000
58 1 185.337538 269.300883 185.337538 269.300883 0.000000 -0.000000 1.000000 1.000000 1.000000
59 1 5.098585 27.423930 5.098585 27.423930 -0.000000 0.000000 1.000000 1.000000 1.000000
60 1 52.369054 169.520153 52.369054 169.520153 0.000000 -0.000000 1.000000 1.000000 1.000000
61 1 110.422706 174.046801 110.422706 174.046801 -0.000000 0.000000 1.000000 1.000000 1.000000
62 1 70.180992 235.762576 70.180992 235.762576 0.000000 -0.000000 1.000000 1.000000 1.000000
63 1 21.154018 144.043902 21.154018 144.043902 0.000000 -0.000000 1.000000 1.000000 1.000000
64 1 222.439638 153.917099 222.439638 153.917099 0.000000 -0.000000 1.000000 1.000000 1.000000
65 1 95.423295 183.866514 95.423295 183.866514 0.000000 -0.000000 1.000000 1.000000 1.000000
66 1 81.007360 146.607123 81.007360 146.607123 0.000000 -0.000000 1.000000 1.000000 1.000000
67 1 7.954613 62.212907 7.954613 62.212907 -0.000000 -0.000000 1.000000 1.000000 1.000000
68 1 91.481490 7.128161 91.481490 7.128161 0.000000 0.000000 1.000000 1.000000 1.000000
69 1 71.478791 63.149308 71.478791 63.149308 0.000000 0.000000 1.000000 1.000000 1.000000
70 1 208.133347 192.029579 208.133347 192.029579 -0.000000 -0.000000 1.000000 1.000000 1.000000
71 1 43.679229 92.183324 43.679229 92.183324 -0.000000 -0.000000 1.000000 1.000000 1.000000
72 1 98.036283 231.064869 98.036283 231.064869 -0.000000 0.000000 1.000000 1.000000 1.000000
73 1 49.353643 193.099442 49.353643 193.099442 -0.000000 -0.000000 1.000000 1.000000 1.000000
74 1 143.087562 247.632152 143.087562 247.632152 -0.000000 0.000000 1.000000 1.000000 1.000000
75 1 153.493325 160.361252 153.493325 160.361252 -0.000000 0.000000 1.000000 1.000000 1.000000
76 1 115.201969 253.198634 115.201969 253.198634 -0.000000 0.000000 1.000000 1.000000 1.000000
77 1 228.218645 50.850826 228.218645 50.850826 0.000000 -0.000000 1.000000 1.000000 1.000000
78 1 219.761044 121.350032 219.761044 121.350032 -0.000000 0.000000 1.000000 1.000000 1.000000
79 1 144.794848 101.131454 144.794848 101.131454 0.000000 0.000000 1.000000 1.000000 1.000000
80 1 158.995727 254.022736 158.995727 254.022736 -0.000000 0.000000 1.000000 1.000000 1.000000
81 1 4.600904 169.765855 4.600904 169.765855 0.000000 0.000000 1.000000 1.000000 1.000000
82 1 87.286381 131.392860 87.286381 131.392860 0.000000 -0.000000 1.000000 1.000000 1.000000
83 1 124.180231 248.414880 124.180231 248.414880 -0.000000 -0.000000 1.000000 1.000000 1.000000
84 1 21.888351 114.938023 21.888351 114.938023 -0.000000 -0.000000 1.000000 1.000000 1.000000
85 1 102.946290 115.922738 102.946290 115.922738 -0.000000 0.000000 1.000000 1.000000 1.000000
86 1 85.344199 2.060438 85.344199 2.060438 -0.000000 0.000000 1.000000 1.000000 1.000000
87 1 19.968106 257.429734 19.968106 257.429734 0.000000 -0.000000 1.000000 1.000000 1.000000
88 1 12.515425 159.336056 12.515425 159.336056 -0.000000 0.000000 1.000000 1.000000 1.000000
89 1 66.294798 268.525362 66.294798 268.525362 0.000000 0.000000 1.000000 1.000000 1.000000
90 1 40.707454 165.282996 40.707454 165.282996 -0.000000 0.000000 1.000000 1.000000 1.000000
91 1 22.465743 243.595568 22.465743 243.595568 0.000000 -0.000000 1.000000 1.000000 1.000000
92 1 202.854166 71.777115 202.854166 71.777115 0.000000 0.000000 1.000000 1.000000 1.000000
93 1 14.455816 225.706546 14.455816 225.706546 -0.000000 -0.000000 1.000000 1.000000 1.000000
94 1 272.627535 82.921129 -2.460422 82.921129 -0.000000 -0.000000 1.000000 1.000000 1.000000
95 1 61.308754 91.748929 61.308754 91.748929 0.000000 0.000000 1.000000 1.000000 1.000000
96 1 257.247980 168.759061 257.247980 168.759061 0.000000 0.000000 1.000000 1.000000 1.000000
97 1 84.246450 47.279891 84.246450 47.279891 0.000000 -0.000000 1.000000 1.000000 1.000000
98 1 198.959942 67.165429 198.959942 67.165429 -0.000000 0.000000 1.000000 1.000000 1.000000
99 1 243.298121 190.805059 243.298121 190.805059 0.000000 0.000000 1.000000 1.000000 1.000000
100 1 108.551961 75.520531 108.551961 75.520531 -0.000000 -0.000000 1.000000 1.000000 1.000000
101 1 204.774688 146.658742 204.774688 146.658742 -0.000000 -0.000000 1.000000 1.000000 1.000000
102 1 190.586285 14.014013 190.586285 14.014013 -0.000000 0.000000 1.000000 1.000000 1.000000
103 1 143.933971 161.919327 143.933971 161.919327 0.000000 0.000000 1.000000 1.000000 1.000000
104 1 146.965595 209.802489 146.965595 209.802489 0.000000 -0.000000 1.000000 1.000000 1.000000
105 1 230.324049 108.795872 230.324049 108.795872 -0.000000 -0.000000 1.000000 1.000000 1.000000
106 1 271.180303 126.286919 271.180303 126.286919 0.000000 -0.000000 1.000000 1.000000 1.000000
107 1 59.206845 258.922397 59.206845 -16.165560 0.000000 0.000000 1.000000 1.000000 1.000000
108 1 103.658384 99.592080 103.658384 99.592080 0.000000 -0.000000 1.000000 1.000000 1.000000
109 1 207.014999 84.431478 207.014999 84.431478 -0.000000 -0.000000 1.000000 1.000000 1.000000
110 1 183.970808 91.219175 183.970808 91.219175 0.000000 0.000000 1.000000 1.000000 1.000000
111 1 182.075047 70.216913 182.075047 70.216913 0.000000 -0.000000 1.000000 1.000000 1.000000
112 1 230.412829 185.999533 230.412829 185.999533 -0.000000 -0.000000 1.000000 1.000000 1.000000
113 1 53.275911 243.331791 53.275911 243.331791 0.000000 -0.000000 1.000000 1.000000 1.000000
114 1 263.299377 174.966002 263.299377 174.966002 -0.000000 0.000000 1.000000 1.000000 1.000000
115 1 258.880719 139.095499 258.880719 139.095499 -0.000000 0.000000 1.000000 1.000000 1.000000
116 1 179.728975 153.670783 179.728975 153.670783 0.000000 0.000000 1.000000 1.000000 1.000000
117 1 57.374568 125.445977 57.374568 125.445977 -0.000000 0.000000 1.000000 1.000000 1.000000
118 1 252.956251 98.711374 252.956251 98.711374 0.000000 -0.000000 1.000000 1.000000 1.000000
119 1 182.775655 182.750168 182.775655 182.750168 0.000000 -0.000000 1.000000 1.000000 1.000000
120 1 198.023153 253.091580 198.023153 253.091580 -0.000000 -0.000000 1.000000 1.000000 1.000000
121 1 92.650161 40.774764 92.650161 40.774764 0.000000 -0.000000 1.000000 1.000000 1.000000
122 1 219.352254 138.529052 219.352254 138.529052 0.000000 0.000000 1.000000 1.000000 1.000000
123 1 212.290169 219.371787 212.290169 219.371787 -0.000000 -0.000000 1.000000 1.000000 1.000000
124 1 31.543365 148.147674 31.543365 148.147674 0.000000 -0.000000 1.000000 1.000000 1.000000
125 1 131.600034 271.218830 131.600034 -3.869127 0.000000 0.000000 1.000000 1.000000 1.000000
126 1 193.571024 271.538957 193.571024 -3.549000 0.000000 -0.000000 1.000000 1.000000 1.000000
127 1 229.769854 233.158275 229.769854 233.158275 0.000000 0.000000 1.000000 1.000000 1.000000
128 1 197.233701 128.403428 197.233701 128.403428 -0.000000 -0.000000 1.000000 1.000000 1.000000
129 1 112.467727 164.588207 112.467727 164.588207 0.000000 -0.000000 1.000000 1.000000 1.000000
130 1 246.515984 105.423135 246.515984 105.423135 0.000000 0.000000 1.000000 1.000000 1.000000
131 1 105.864412 48.672975 105.864412 48.672975 -0.000000 -0.000000 1.000000 1.000000 1.000000
132 1 228.109175 25.367834 228.109175 300.455791 0.000000 0.000000 1.000000 1.000000 1.000000
133 1 227.104182 210.851899 227.104182 210.851899 -0.000000 0.000000 1.000000 1.000000 1.000000
134 1 106.441354 252.073313 106.441354 252.073313 -0.000000 0.000000 1.000000 1.000000 1.000000
135 1 3.896408 63.422103 278.984365 63.422103 -0.000000 -0.000000 1.000000 1.000000 1.000000
136 1 151.381157 127.764903 151.381157 127.764903 0.000000 0.000000 1.000000 1.000000 1.000000
137 1 65.074844 260.559111 65.074844 260.559111 -0.000000 0.000000 1.000000 1.000000 1.000000
138 1 254.355901 178.445928 254.355901 178.445928 0.000000 -0.000000 1.000000 1.000000 1.000000
139 1 18.888124 271.841267 18.888124 271.841267 0.000000 0.000000 1.000000 1.000000 1.000000
140 1 176.919972 102.376525 176.919972 102.376525 -0.000000 -0.000000 1.000000 1.000000 1.000000
141 1 202.314421 242.398636 202.314421 242.398636 -0.000000 0.000000 1.000000 1.000000 1.000000
142 1 119.489017 54.306528 119.489017 54.306528 -0.000000 -0.000000 1.000000 1.000000 1.000000
143 1 231.635140 37.877930 231.635140 37.877930 -0.000000 -0.000000 1.000000 1.000000 1.000000
144 1 125.315817 20.775267 125.315817 20.775267 0.000000 0.000000 1.000000 1.000000 1.000000
145 1 221.733034 79.929102 221.733034 79.929102 -0.000000 -0.000000 1.000000 1.000000 1.000000
146 1 165.796169 164.427155 165.796169 164.427155 -0.000000 -0.000000 1.000000 1.000000 1.000000
147 1 188.790679 1.248368 188.790679 276.336325 0.000000 0.000000 1.000000 1.000000 1.000000
148 1 32.832629 89.621032 32.832629 89.621032 -0.000000 -0.000000 1.000000 1.000000 1.000000
149 1 6.090578 73.325749 6.090578 73.325749 0.000000 -0.000000 1.000000 1.000000 1.000000
150 1 19.831291 210.755151 19.831291 210.755151 0.000000 -0.000000 1.000000 1.000000 1.000000
151 1 102.891188 78.022687 102.891188 78.022687 0.000000 -0.000000 1.000000 1.000000 1.000000
152 1 184.497390 116.365212 184.497390 116.365212 0.000000 -0.000000 1.000000 1.000000 1.000000
153 1 139.437070 255.881403 139.437070 255.881403 -0.000000 -0.000000 1.000000 1.000000 1.000000
154 1 203.209287 153.386547 203.209287 153.386547 0.000000 0.000000 1.000000 1.000000 1.000000
155 1 152.140522 195.902907 152.140522 195.902907 -0.000000 -0.000000 1.000000 1.000000 1.000000
156 1 11.483429 181.469236 286.571386 181.469236 0.000000 -0.000000 1.000000 1.000000 1.000000
157 1 65.649983 122.053195 65.649983 122.053195 0.000000 0.000000 1.000000 1.000000 1.000000
158 1 273.496992 199.973310 273.496992 199.973310 0.000000 0.000000 1.000000 1.000000 1.000000
159 1 231.289207 256.729118 231.289207 256.729118 -0.000000 -0.000000 1.000000 1.000000 1.000000
160 1 124.122764 175.259486 124.122764 175.259486 -0.000000 0.000000 1.000000 1.000000 1.000000
161 1 28.035267 171.736145 28.035267 171.736145 0.000000 0.000000 1.000000 1.000000 1.000000
162 1 266.705163 190.782082 266.705163 190.782082 0.000000 0.000000 1.000000 1.000000 1.000000
163 1 79.838952 67.049047 79.838952 67.049047 0.000000 -0.000000 1.000000 1.000000 1.000000
164 1 104.056825 187.553988 104.056825 187.553988 0.000000 -0.000000 1.000000 1.000000 1.000000
165 1 28.862919 190.903353 28.862919 190.903353 0.000000 0.000000 1.000000 1.000000 1.000000
166 1 95.953120 20.500479 95.953120 295.588436 -0.000000 0.000000 1.000000 1.000000 1.000000
167 1 108.707192 153.926794 108.707192 153.926794 0.000000 -0.000000 1.000000 1.000000 1.000000
168 1 30.269500 0.098633 30.269500 0.098633 0.000000 -0.000000 1.000000 1.000000 1.000000
169 1 104.585488 263.877515 104.585488 263.877515 0.000000 0.000000 1.000000 1.000000 1.000000
170 1 125.388260 56.665965 125.388260 56.665965 -0.000000 -0.000000 1.000000 1.000000 1.000000
171 1 54.313370 62.066794 54.313370 62.066794 -0.000000 0.000000 1.000000 1.000000 1.000000
172 1 114.222398 156.118985 114.222398 156.118985 -0.000000 -0.000000 1.000000 1.000000 1.000000
173 1 34.990429 223.311618 34.990429 223.311618 0.000000 -0.000000 1.000000 1.000000 1.000000
174 1 41.336323 118.780875 41.336323 118.780875 0.000000 0.000000 1.000000 1.000000 1.000000
175 1 63.891901 92.889592 63.891901 92.889592 0.000000 0.000000 1.000000 1.000000 1.000000
176 1 62.883596 32.788113 62.883596 32.788113 0.000000 -0.000000 1.000000 1.000000 1.000000
177 1 261.096369 95.878535 -13.991588 95.878535 0.000000 0.000000 1.000000 1.000000 1.000000
178 1 88.987943 105.977051 88.987943 105.977051 -0.000000 0.000000 1.000000 1.000000 1.000000
179 1 165.521295 196.713663 165.521295 196.713663 -0.000000 -0.000000 1.000000 1.000000 1.000000
180 1 270.858620 149.133736 270.858620 149.133736 0.000000 0.000000 1.000000 1.000000 1.000000
181 1 191.826606 227.351451 191.826606 227.351451 -0.000000 -0.000000 1.000000 1.000000 1.000000
182 1 149.453904 90.066186 149.453904 90.066186 0.000000 -0.000000 1.000000 1.000000 1.000000
183 1 19.383861 114.423252 294.471818 114.423252 0.000000 0.000000 1.000000 1.000000 1.000000
184 1 139.295263 102.325947 139.295263 102.325947 -0.000000 -0.000000 1.000000 1.000000 1.000000
185 1 187.122347 267.172784 187.122347 267.172784 -0.000000 0.000000 1.000000 1.000000 1.000000
186 1 274.579539 137.593477 -0.508418 137.593477 -0.000000 -0.000000 1.000000 1.000000 1.000000
187 1 147.582574 30.141804 147.582574 30.141804 0.000000 -0.000000 1.000000 1.000000 1.000000
188 1 50.222201 162.502511 50.222201 162.502511 -0.000000 0.000000 1.000000 1.000000 1.000000
189 1 3.638824 115.688029 3.638824 115.688029 0.000000 0.000000 1.000000 1.000000 1.000000
190 1 66.746428 165.587738 66.746428 165.587738 -0.000000 0.000000 1.000000 1.000000 1.000000
191 1 38.483906 23.328812 38.483906 23.328812 -0.000000 -0.000000 1.000000 1.000000 1.000000
192 1 168.237606 69.984286 168.237606 69.984286 0.000000 0.000000 1.000000 1.000000 1.000000
193 1 62.630294 260.286502 62.630294 260.286502 -0.000000 -0.000000 1.000000 1.000000 1.000000
194 1 237.304605 120.565971 237.304605 120.565971 -0.000000 0.000000 1.000000 1.000000 1.000000
195 1 198.046156 229.844749 198.046156 229.844749 0.000000 -0.000000 1.000000 1.000000 1.000000
196 1 204.970132 268.279758 204.970132 268.279758 -0.000000 0.000000 1.000000 1.000000 1.000000
197 1 232.116182 180.304276 232.116182 180.304276 0.000000 0.000000 1.000000 1.000000 1.000000
198 1 162.920208 146.124754 162.920208 146.124754 -0.000000 0.000000 1.000000 1.000000 1.000000
199 1 141.023523 161.769607 141.023523 161.769607 -0.000000 0.000000 1.000000 1.000000 1.000000
200 1 263.036532 13.952462 -12.051425 13.952462 -0.000000 0.000000 1.000000 1.000000 1.000000
201 1 256.105821 227.993665 256.105821 227.993665 -0.000000 -0.000000 1.000000 1.000000 1.000000
202 1 118.543787 15.225460 118.543787 15.225460 0.000000 -0.000000 1.000000 1.000000 1.000000
203 1 131.729466 4.373648 131.729466 4.373648 -0.000000 -0.000000 1.000000 1.000000 1.000000
204 1 80.729564 194.481574 80.729564 194.481574 -0.000000 -0.000000 1.000000 1.000000 1.000000
205 1 169.292204 27.321856 169.292204 27.321856 0.000000 0.000000 1.000000 1.000000 1.000000
206 1 179.482138 69.532816 179.482138 69.532816 -0.000000 0.000000 1.000000 1.000000 1.000000
207 1 32.737132 165.047671 32.737132 165.047671 -0.000000 -0.000000 1.000000 1.000000 1.000000
208 1 86.660728 72.171551 86.660728 72.171551 -0.000000 -0.000000 1.000000 1.000000 1.000000
209 1 111.132864 70.790662 111.132864 70.790662 0.000000 -0.000000 1.000000 1.000000 1.000000
210 1 2.659591 151.505383 277.747548 151.505383 -0.000000 -0.000000 1.000000 1.000000 1.000000
211 1 121.622648 261.253587 121.622648 261.253587 -0.000000 0.000000 1.000000 1.000000 1.000000
212 1 50.619924 146.046670 50.619924 146.046670 -0.000000 -0.000000 1.000000 1.000000 1.000000
213 1 178.115720 77.533412 178.115720 77.533412 -0.000000 -0.000000 1.000000 1.000000 1.000000
214 1 18.045779 154.350996 18.045779 154.350996 0.000000 -0.000000 1.000000 1.000000 1.000000
215 1 10.602645 184.223359 10.602645 184.223359 0.000000 -0.000000 1.000000 1.000000 1.000000
216 1 245.798670 200.348204 245.798670 200.348204 -0.000000 -0.000000 1.000000 1.000000 1.000000
217 1 261.109500 256.402272 -13.978457 256.402272 -0.000000 0.000000 1.000000 1.000000 1.000000
218 1 245.841878 272.864510 245.841878 272.864510 0.000000 -0.000000 1.000000 1.000000 1.000000
219 1 8.220773 226.340016 8.220773 226.340016 0.000000 -0.000000 1.000000 1.000000 1.000000
220 1 242.757736 67.242380 242.757736 67.242380 -0.000000 0.000000 1.000000 1.000000 1.000000
221 1 235.014169 231.056599 235.014169 231.056599 -0.000000 0.000000 1.000000 1.000000 1.000000
222 1 231.325947 68.824823 231.325947 68.824823 0.000000 0.000000 1.000000 1.000000 1.000000
223 1 44.166767 96.946289 44.166767 96.946289 0.000000 0.000000 1.000000 1.000000 1.000000
224 1 80.120359 144.272231 80.120359 144.272231 0.000000 0.000000 1.000000 1.000000 1.000000
225 1 174.040236 47.032106 174.040236 47.032106 -0.000000 -0.000000 1.000000 1.000000 1.000000
226 1 82.313280 28.513354 82.313280 28.513354 0.000000 0.000000 1.000000 1.000000 1.000000
227 1 209.156297 173.498558 209.156297 173.498558 0.000000 0.000000 1.000000 1.000000 1.000000
228 1 167.361571 55.247995 167.361571 55.247995 0.000000 -0.000000 1.000000 1.000000 1.000000
229 1 244.630597 130.313527 244.630597 130.313527 -0.000000 0.000000 1.000000 1.000000 1.000000
230 1 209.735213 44.811412 209.735213 44.811412 -0.000000 -0.000000 1.000000 1.000000 1.000000
231 1 71.572396 163.514549 71.572396 163.514549 -0.000000 -0.000000 1.000000 1.000000 1.000000
232 1 213.778972 25.217824 213.778972 300.305781 0.000000 0.000000 1.000000 1.000000 1.000000
233 1 271.542945 216.055303 271.542945 216.055303 0.000000 0.000000 1.000000 1.000000 1.000000
234 1 193.544684 159.497337 193.544684 159.497337 -0.000000 0.000000 1.000000 1.000000 1.000000
235 1 31.533445 110.678591 31.533445 110.678591 0.000000 -0.000000 1.000000 1.000000 1.000000
236 1 215.602022 8.239934 215.602022 8.239934 0.000000 0.000000 1.000000 1.000000 1.000000
237 1 224.536495 268.929249 224.536495 268.929249 -0.000000 -0.000000 1.000000 1.000000 1.000000
238 1 152.614151 35.376891 152.614151 35.376891 0.000000 -0.000000 1.000000 1.000000 1.000000
239 1 261.786695 19.096633 -13.301262 19.096633 -0.000000 -0.000000 1.000000 1.000000 1.000000
240 1 235.943430 82.802953 235.943430 82.802953 -0.000000 -0.000000 1.000000 1.000000 1.000000
241 1 171.861318 124.316616 171.861318 124.316616 0.000000 -0.000000 1.000000 1.000000 1.000000
242 1 129.328626 247.748287 129.328626 247.748287 0.000000 0.000000 1.000000 1.000000 1.000000
243 1 149.692487 244.028537 149.692487 244.028537 -0.000000 0.000000 1.000000 1.000000 1.000000
244 1 127.899052 34.405204 127.899052 34.405204 0.000000 -0.000000 1.000000 1.000000 1.000000
245 1 34.532196 232.413743 34.532196 232.413743 -0.000000 -0.000000 1.000000 1.000000 1.000000
246 1 269.703367 273.163566 -5.384590 273.163566 -0.000000 0.000000 1.000000 1.000000 1.000000
247 1 240.477803 26.385116 240.477803 26.385116 -0.000000 0.000000 1.000000 1.000000 1.000000
248 1 105.351057 221.123825 105.351057 221.123825 -0.000000 -0.000000 1.000000 1.000000 1.000000
249 1 234.718260 190.657307 234.718260 190.657307 -0.000000 0.000000 1.000000 1.000000 1.000000
250 1 15.057102 125.916498 15.057102 125.916498 -0.000000 -0.000000 1.000000 1.000000 1.000000
251 1 196.559446 204.233783 196.559446 204.233783 -0.000000 -0.000000 1.000000 1.000000 1.000000
252 1 105.835662 37.127954 105.835662 37.127954 -0.000001 -0.000000 1.000000 1.000000 1.000000
253 1 269.141226 201.562957 269.141226 201.562957 -0.000000 0.000000 1.000000 1.000000 1.000000
254 1 197.509465 200.723403 197.509465 200.723403 -0.000000 -0.000000 1.000000 1.000000 1.000000
255 1 0.139963 202.786170 275.227920 202.786170 0.000000 0.000000 1.000000 1.000000 1.000000
256 1 27.787002 199.898394 27.787002 199.898394 -0.000001 0.000000 1.000000 1.000000 1.000000
257 1 40.063651 126.109282 40.063651 126.109282 0.000000 -0.000000 1.000000 1.000000 1.000000
258 1 66.008800 160.097006 66.008800 160.097006 0.000000 0.000000 1.000000 1.000000 1.000000
259 1 236.827405 162.541054 236.827405 162.541054 -0.000000 0.000000 1.000000 1.000000 1.000000
260 1 211.396097 84.773996 211.396097 84.773996 0.000000 0.000000 1.000000 1.000000 1.000000
261 1 228.576595 165.873282 228.576595 165.873282 -0.000000 0.000000 1.000000 1.000000 1.000000
262 1 192.224451 206.384888 192.224451 206.384888 -0.000000 0.000000 1.000000 1.000000 1.000000
263 1 125.922733 80.279329 125.922733 80.279329 0.000000 0.000000 1.000000 1.000000 1.000000
264 1 236.103874 18.302462 236.103874 18.302462 -0.000000 -0.000000 1.000000 1.000000 1.000000
265 1 172.931099 77.654268 172.931099 77.654268 0.000000 0.000000 1.000000 1.000000 1.000000
266 1 201.343574 214.162982 201.343574 214.162982 0.000000 -0.000000 1.000000 1.000000 1.000000
267 1 85.916903 186.672983 85.916903 186.672983 -0.000000 0.000000 1.000000 1.000000 1.000000
268 1 75.030670 180.304317 75.030670 180.304317 -0.000000 -0.000000 1.000000 1.000000 1.000000
269 1 64.394148 107.142795 64.394148 107.142795 -0.000000 0.000000 1.000000 1.000000 1.000000
270 1 164.585992 0.574369 164.585992 275.662326 0.000000 -0.000000 1.000000 1.000000 1.000000
271 1 87.311184 2.795003 87.311184 277.882960 -0.000000 -0.000000 1.000000 1.000000 1.000000
272 1 162.281280 239.479995 162.281280 239.479995 -0.000000 -0.000000 1.000000 1.000000 1.000000
273 1 188.111612 196.027891 188.111612 196.027891 -0.000000 0.000000 1.000000 1.000000 1.000000
274 1 170.379328 127.101421 170.379328 127.101421 -0.000000 -0.000000 1.000000 1.000000 1.000000
275 1 178.342308 203.128652 178.342308 203.128652 0.000000 0.000000 1.000000 1.000000 1.000000
276 1 184.933298 98.476799 184.933298 98.476799 0.000000 -0.000000 1.000000 1.000000 1.000000
277 1 136.563223 11.828604 136.563223 286.916561 -0.000000 -0.000000 1.000000 1.000000 1.000000
278 1 209.940138 162.465340 209.940138 162.465340 -0.000000 0.000000 1.000000 1.000000 1.000000
279 1 10.819072 61.967597 10.819072 61.967597 -0.000000 -0.000000 1.000000 1.000000 1.000000
280 1 59.584420 242.460093 59.584420 242.460093 0.000000 -0.000000 1.000000 1.000000 1.000000
281 1 195.422912 170.409520 195.422912 170.409520 -0.000000 0.000000 1.000000 1.000000 1.000000
282 1 76.127061 81.508473 76.127061 81.508473 0.000000 -0.000000 1.000000 1.000000 1.000000
283 1 77.950585 195.312011 77.950585 195.312011 0.000000 0.000000 1.000000 1.000000 1.000000
284 1 67.641319 247.187062 67.641319 247.187062 0.000000 -0.000000 1.000000 1.000000 1.000000
285 1 41.122960 9.792355 41.122960 284.880312 0.000000 -0.000000 1.000000 1.000000 1.000000
286 1 160.113061 155.477948 160.113061 155.477948 -0.000000 0.000000 1.000000 1.000000 1.000000
287 1 110.322915 92.128960 110.322915 92.128960 -0.000000 -0.000000 1.000000 1.000000 1.000000
288 1 23.681138 5.737130 23.681138 5.737130 0.000000 -0.000000 1.000000 1.000000 1.000000
289 1 163.755680 187.057784 163.755680 187.057784 -0.000000 -0.000000 1.000000 1.000000 1.000000
290 1 70.645115 247.400526 70.645115 247.400526 0.000000 0.000000 1.000000 1.000000 1.000000
291 1 150.981001 188.245353 150.981001 188.245353 0.000000 -0.000000 1.000000 1.000000 1.000000
292 1 175.358779 117.059542 175.358779 117.059542 0.000000 0.000000 1.000000 1.000000 1.000000
293 1 130.593307 228.947736 130.593307 228.947736 -0.000000 -0.000000 1.000000 1.000000 1.000000
294 1 61.840911 242.049183 61.840911 242.049183 -0.000000 -0.000000 1.000000 1.000000 1.000000
295 1 11.174619 269.531410 11.174619 -5.556547 -0.000000 0.000000 1.000000 1.000000 1.000000
296 1 163.146663 163.840267 163.146663 163.840267 -0.000000 -0.000000 1.000000 1.000000 1.000000
297 1 254.974534 145.498467 254.974534 145.498467 -0.000000 0.000000 1.000000 1.000000 1.000000
298 1 271.372966 30.783728 -3.714991 30.783728 0.000000 -0.000000 1.000000 1.000000 1.000000
299 1 102.564892 186.221172 102.564892 186.221172 -0.000000 -0.000000 1.000000 1.000000 1.000000
300 1 79.023527 186.489901 79.023527 186.489901 0.000000 0.000000 1.000000 1.000000 1.000000
301 1 222.609742 230.343896 222.609742 230.343896 0.000000 0.000000 1.000000 1.000000 1.000000
302 1 222.253668 222.800665 222.253668 222.800665 -0.000000 -0.000000 1.000000 1.000000 1.000000
303 1 182.939635 186.839052 182.939635 186.839052 -0.000000 0.000000 1.000000 1.000000 1.000000
304 1 196.905575 97.437580 196.905575 97.437580 0.000000 0.000000 1.000000 1.000000 1.000000
305 1 17.032812 209.933163 17.032812 209.933163 0.000000 0.000000 1.000000 1.000000 1.000000
306 1 162.336503 184.985259 162.336503 184.985259 -0.000000 0.000000 1.000000 1.000000 1.000000
307 1 212.978681 72.093693 212.978681 72.093693 0.000000 -0.000000 1.000000 1.000000 1.000000
308 1 118.766440 90.772198 118.766440 90.772198 0.000000 0.000000 1.000000 1.000000 1.000000
309 1 89.644246 8.091279 89.644246 283.179236 -0.000000 0.000000 1.000000 1.000000 1.000000
310 1 46.018878 270.232926 46.018878 270.232926 0.000000 0.000000 1.000000 1.000000 1.000000
311 1 141.042619 49.014278 141.042619 49.014278 -0.000000 0.000000 1.000000 1.000000 1.000000
312 1 113.233058 172.741800 113.233058 172.741800 0.000000 0.000000 1.000000 1.000000 1.000000
313 1 146.287219 142.454257 146.287219 142.454257 0.000000 -0.000000 1.000000 1.000000 1.000000
314 1 244.340318 254.753816 244.340318 254.753816 -0.000000 0.000000 1.000000 1.000000 1.000000
315 1 252.004583 89.860422 252.004583 89.860422 0.000000 -0.000000 1.000000 1.000000 1.000000