ITEM: TIMESTEP
4000.000000
ITEM: NUMBER OF ATOMS
5000
ITEM: BOX BOUNDS xy xz yz
0 218.575774 0
0 218.575774 0
0 2 0
ITEM: ATOMS id type x y xu yu vx vy radius m z
0 1 47.373455 15.534401 47.373455 15.534401 -0.000000 0.000000 1.000000 1.000000 1.000000
1 1 13.989365 64.762687 13.989365 64.762687 -0.000000 0.000000 1.000000 1.000000 1.000000
2 1 70.597763 60.284007 70.597763 60.284007 -0.000000 0.000000 1.000000 1.000000 1.000000
3 1 1.684972 67.530751 220.260746 67.530751 0.000000 0.000000 1.000000 1.000000 1.000000
4 1 103.652559 192.863548 103.652559 192.863548 -0.000000 -0.000000 1.000000 1.000000 1.000000
5 1 48.396006 157.780261 48.396006 157.780261 -0.000000 0.000000 1.000000 1.000000 1.000000
6 1 61.675909 171.093521 61.675909 171.093521 0.000000 -0.000000 1.000000 1.000000 1.000000
7 1 53.929879 72.251252 53.929879 72.251252 -0.000000 0.000000 1.000000 1.000000 1.000000
8 1 172.193944 95.573918 172.193944 95.573918 0.000000 -0.000000 1.000000 1.000000 1.000000
9 1 44.459086 7.484623 44.459086 7.484623 -0.000000 0.000000 1.000000 1.000000 1.000000
10 1 93.414107 47.406191 93.414107 47.406191 -0.000000 0.000000 1.000000 1.000000 1.000000
11 1 69.656852 50.288521 69.656852 50.288521 -0.000000 -0.000000 1.000000 1.000000 1.000000
12 1 41.364866 76.331634 41.364866 76.331634 0.000000 0.000000 1.000000 1.000000 1.000000
13 1 196.485782 97.683421 196.485782 97.683421 -0.000000 0.000000 1.000000 1.000000 1.000000
14 1 1.635292 146.972333 1.635292 146.972333 0.000000 -0.000000 1.000000 1.000000 1.000000
15 1 200.761072 217.759951 200.761072 217.759951 -0.000000 -0.000000 1.000000 1.000000 1.000000
16 1 8.102482 106.208670 8.102482 106.208670 -0.000000 -0.000000 1.000000 1.000000 1.000000
17 1 168.103623 95.255268 168.103623 95.255268 0.000000 -0.000000 1.000000 1.000000 1.000000
18 1 76.009572 126.475510 76.009572 126.475510 0.000000 -0.000000 1.000000 1.000000 1.000000
19 1 130.289422 53.985151 130.289422 53.985151 -0.000000 -0.000000 1.000000 1.000000 1.000000
20 1 104.959577 142.225464 104.959577 142.225464 -0.000000 -0.000000 1.000000 1.000000 1.000000
21 1 91.085860 15.387830 91.085860 15.387830 0.000000 0.000000 1.000000 1.000000 1.000000
22 1 2.602482 212.191804 221.178256 212.191804 0.000000 -0.000000 1.000000 1.000000 1.000000
23 1 133.021989 116.852884 133.021989 116.852884 0.000000 0.000000 1.000000 1.000000 1.000000
24 1 183.652236 89.941407 183.652236 89.941407 0.000000 -0.000000 1.000000 1.000000 1.000000
25 1 214.604480 214.538976 214.604480 -4.036798 0.000000 -0.000000 1.000000 1.000000 1.000000
26 1 123.958059 78.862130 123.958059 78.862130 -0.000000 -0.000000 1.000000 1.000000 1.000000
27 1 188.541065 103.174751 188.541065 103.174751 -0.000000 -0.000000 1.000000 1.000000 1.000000
28 1 113.415764 41.538632 113.415764 41.538632 -0.000000 0.000000 1.000000 1.000000 1.000000
29 1 165.106341 210.679888 165.106341 -7.895886 0.000000 -0.000000 1.000000 1.000000 1.000000
30 1 52.604104 97.449896 52.604104 97.449896 -0.000000 -0.000000 1.000000 1.000000 1.000000
31 1 107.364241 161.703335 107.364241 161.703335 -0.000000 0.000000 1.000000 1.000000 1.000000
32 1 129.377252 30.816857 129.377252 30.816857 -0.000000 0.000000 1.000000 1.000000 1.000000
33 1 45.036711 167.558825 45.036711 167.558825 0.000000 -0.000000 1.000000 1.000000 1.000000
34 1 189.136880 55.784417 189.136880 55.784417 -0.000000 0.000000 1.000000 1.000000 1.000000
35 1 161.194820 104.055793 161.194820 104.055793 0.000000 0.000000 1.000000 1.000000 1.000000
36 1 180.962018 23.648626 180.962018 23.648626 -0.000000 0.000000 1.000000 1.000000 1.000000
37 1 84.414455 50.648911 84.414455 50.648911 0.000000 0.000000 1.000000 1.000000 1.000000
38 1 115.845834 207.521307 115.845834 207.521307 0.000000 -0.000000 1.000000 1.000000 1.000000
39 1 114.904656 51.485549 114.904656 51.485549 0.000000 0.000000 1.000000 1.000000 1.000000
40 1 108.079258 40.537250 108.079258 40.537250 -0.000000 0.000000 1.000000 1.000000 1.000000
41 1 92.904088 151.734987 92.904088 151.734987 0.000000 0.000000 1.000000 1.000000 1.000000
42 1 45.839183 90.102340 45.839183 90.102340 -0.000000 -0.000000 1.000000 1.000000 1.000000
43 1 56.364301 94.937929 56.364301 94.937929 -0.000000 0.000000 1.000000 1.000000 1.000000
44 1 30.404587 24.272607 30.404587 24.272607 0.000000 0.000000 1.000000 1.000000 1.000000
45 1 138.037442 108.273732 138.037442 108.273732 -0.000000 -0.000000 1.000000 1.000000 1.000000
46 1 136.285729 87.172395 136.285729 87.172395 0.000000 -0.000000 1.000000 1.000000 1.000000
47 1 196.095382 4.095209 196.095382 4.095209 0.000000 0.000000 1.000000 1.000000 1.000000
48 1 120.230998 35.740024 120.230998 35.740024 0.000000 -0.000000 1.000000 1.000000 1.000000
49 1 74.608625 128.703241 74.608625 128.703241 0.000000 0.000000 1.000000 1.000000 1.000000
50 1 32.837418 2.424519 32.837418 221.000293 0.000000 0.000000 1.000000 1.000000 1.000000
51 1 17.363015 114.556583 17.363015 114.556583 -0.000000 0.000000 1.000000 1.000000 1.000000
52 1 211.643186 120.276117 -6.932588 120.276117 -0.000000 0.000000 1.000000 1.000000 1.000000
53 1 140.158355 177.009154 140.158355 177.009154 0.000000 0.000000 1.000000 1.000000 1.000000
54 1 152.878909 132.229582 152.878909 132.229582 0.000000 0.000000 1.000000 1.000000 1.000000
55 1 181.358554 67.596224 181.358554 67.596224 0.000000 0.000000 1.000000 1.000000 1.000000
56 1 207.898876 165.520332 207.898876 165.520332 0.000000 0.000000 1.000000 1.000000 1.000000
57 1 64.506100 26.452172 64.506100 245.027946 0.000000 -0.000000 1.000000 1.000000 1.000000
58 1 112.080761 77.701702 112.080761 77.701702 -0.000000 0.000000 1.000000 1.000000 1.000000
59 1 140.130812 199.601626 140.130812 199.601626 -0.000000 -0.000000 1.000000 1.000000 1.000000
60 1 61.095426 104.833205 61.095426 104.833205 0.000000 0.000000 1.000000 1.000000 1.000000
61 1 48.318125 177.990681 48.318125 177.990681 -0.000000 -0.000000 1.000000 1.000000 1.000000
62 1 44.593733 85.159082 44.593733 85.159082 -0.000000 0.000000 1.000000 1.000000 1.000000
63 1 95.932621 86.626354 95.932621 86.626354 -0.000000 -0.000000 1.000000 1.000000 1.000000
64 1 158.969724 168.813437 158.969724 168.813437 0.000000 0.000000 1.000000 1.000000 1.000000
65 1 190.490795 45.992509 190.490795 45.992509 -0.000000 0.000000 1.000000 1.000000 1.000000
66 1 123.300609 209.050729 123.300609 209.050729 -0.000000 -0.000000 1.000000 1.000000 1.000000
67 1 185.688954 89.672116 185.688954 89.672116 -0.000000 -0.000000 1.000000 1.000000 1.000000
68 1 105.603359 201.909139 105.603359 201.909139 -0.000000 0.000000 1.000000 1.000000 1.000000
69 1 26.940897 160.557957 26.940897 160.557957 -0.000000 0.000000 1.000000 1.000000 1.000000
70 1 36.341256 196.363927 36.341256 196.363927 -0.000000 -0.000000 1.000000 1.000000 1.000000
71 1 191.548569 144.043544 191.548569 144.043544 -0.000000 -0.000000 1.000000 1.000000 1.000000
72 1 8.878469 182.844094 8.878469 182.844094 -0.000000 0.000000 1.000000 1.000000 1.000000
73 1 34.921620 190.034356 34.921620 190.034356 -0.000000 0.000000 1.000000 1.000000 1.000000
74 1 63.253794 37.846710 63.253794 37.846710 -0.000000 -0.000000 1.000000 1.000000 1.000000
75 1 46.191367 188.429804 46.191367 188.429804 -0.000000 0.000000 1.000000 1.000000 1.000000
76 1 172.573948 101.009449 172.573948 101.009449 0.000000 -0.000000 1.000000 1.000000 1.000000
77 1 107.854313 18.439936 107.854313 18.439936 -0.000000 0.000000 1.000000 1.000000 1.000000
78 1 150.601009 123.807601 150.601009 123.807601 0.000000 -0.000000 1.000000 1.000000 1.000000
79 1 35.317382 8.820998 35.317382 8.820998 0.000000 -0.000000 1.000000 1.000000 1.000000
80 1 102.276292 172.662193 102.276292 172.662193 0.000000 0.000000 1.000000 1.000000 1.000000
81 1 197.158830 42.005006 197.158830 42.005006 0.000000 -0.000000 1.000000 1.000000 1.000000
82 1 104.133028 62.578507 104.133028 62.578507 -0.000000 -0.000000 1.000000 1.000000 1.000000
83 1 121.831481 95.669753 121.831481 95.669753 0.000000 -0.000000 1.000000 1.000000 1.000000
84 1 61.637855 62.597691 61.637855 62.597691 0.000000 -0.000000 1.000000 1.000000 1.000000
85 1 205.117254 7.332487 205.117254 7.332487 -0.000000 0.000000 1.000000 1.000000 1.000000
86 1 62.297573 158.974489 62.297573 158.974489 -0.000000 -0.000000 1.000000 1.000000 1.000000
87 1 126.551082 183.361521 126.551082 183.361521 -0.000000 0.000000 1.000000 1.000000 1.000000
88 1 217.593548 62.204399 217.593548 62.204399 0.000000 -0.000000 1.000000 1.000000 1.000000
89 1 1.732361 37.543446 1.732361 37.543446 -0.000000 0.000000 1.000000 1.000000 1.000000
90 1 178.223870 6.553930 178.223870 6.553930 0.000000 0.000000 1.000000 1.000000 1.000000
91 1 31.080499 172.658336 31.080499 172.658336 -0.000000 0.000000 1.000000 1.000000 1.000000
92 1 22.024384 98.019815 22.024384 98.019815 -0.000000 -0.000000 1.000000 1.000000 1.000000
93 1 12.347319 201.952525 12.347319 201.952525 -0.000000 -0.000000 1.000000 1.000000 1.000000
94 1 205.366708 145.262307 205.366708 145.262307 -0.000000 -0.000000 1.000000 1.000000 1.000000
95 1 90.775814 1.444324 90.775814 220.020098 -0.000000 0.000000 1.000000 1.000000 1.000000
96 1 19.296793 21.637948 19.296793 21.637948 -0.000000 0.000000 1.000000 1.000000 1.000000
97 1 26.295171 40.643907 26.295171 40.643907 0.000000 -0.000000 1.000000 1.000000 1.000000
98 1 54.614761 211.732722 54.614761 211.732722 -0.000000 -0.000000 1.000000 1.000000 1.000000
99 1 99.886904 205.605914 99.886904 205.605914 -0.000000 -0.000000 1.000000 1.000000 1.000000
100 1 113.850768 171.717991 113.850768 171.717991 0.000000 0.000000 1.000000 1.000000 1.000000
101 1 137.742602 78.586102 137.742602 78.586102 0.000000 0.000000 1.000000 1.000000 1.000000
102 1 0.241787 182.163273 0.241787 182.163273 -0.000000 -0.000000 1.000000 1.000000 1.000000
103 1 65.851017 128.101084 65.851017 128.101084 -0.000000 -0.000000 1.000000 1.000000 1.000000
104 1 104.185386 46.290116 104.185386 46.290116 0.000000 -0.000000 1.000000 1.000000 1.000000
105 1 158.233989 179.522903 158.233989 179.522903 0.000000 -0.000000 1.000000 1.000000 1.000000
106 1 9.603749 148.003591 9.603749 148.003591 0.000000 -0.000000 1.000000 1.000000 1.000000
107 1 197.386592 148.140534 197.386592 148.140534 -0.000000 -0.000000 1.000000 1.000000 1.000000
108 1 30.749281 36.615739 30.749281 36.615739 -0.000000 0.000000 1.000000 1.000000 1.000000
109 1 186.712180 167.870164 186.712180 167.870164 0.000000 0.000000 1.000000 1.000000 1.000000
110 1 117.840543 35.686589 117.840543 35.686589 -0.000000 -0.000000 1.000000 1.000000 1.000000
111 1 3.632085 62.412664 3.632085 62.412664 -0.000000 0.000000 1.000000 1.000000 1.000000
112 1 13.149499 76.488851 13.149499 76.488851 0.000000 0.000000 1.000000 1.000000 1.000000
113 1 62.620136 93.767543 62.620136 93.767543 0.000000 0.000000 1.000000 1.000000 1.000000
114 1 142.202233 180.125285 142.202233 180.125285 -0.000000 -0.000000 1.000000 1.000000 1.000000
115 1 124.829690 55.018518 124.829690 55.018518 0.000000 0.000000 1.000000 1.000000 1.000000
116 1 81.888710 88.210082 81.888710 88.210082 -0.000000 0.000000 1.000000 1.000000 1.000000
117 1 184.048842 189.271051 184.048842 189.271051 -0.000000 -0.000000 1.000000 1.000000 1.000000
118 1 117.950854 143.491878 117.950854 143.491878 -0.000000 -0.000000 1.000000 1.000000 1.000000
119 1 121.413143 152.749906 121.413143 152.749906 -0.000000 -0.000000 1.000000 1.000000 1.000000
120 1 145.394992 70.592750 145.394992 70.592750 -0.000000 0.000000 1.000000 1.000000 1.000000
121 1 82.539753 128.290515 82.539753 128.290515 -0.000000 0.000000 1.000000 1.000000 1.000000
122 1 183.904157 25.191717 183.904157 25.191717 -0.000000 0.000000 1.000000 1.000000 1.000000
123 1 174.089313 102.601480 174.089313 102.601480 0.000000 0.000000 1.000000 1.000000 1.000000
124 1 171.896258 128.802857 171.896258 128.802857 0.000000 0.000000 1.000000 1.000000 1.000000
125 1 131.895242 32.577999 131.895242 32.577999 -0.000000 0.000000 1.000000 1.000000 1.000000
126 1 93.638938 112.278356 93.638938 112.278356 0.000000 -0.000000 1.000000 1.000000 1.000000
127 1 125.301733 10.961375 125.301733 10.961375 0.000000 -0.000000 1.000000 1.000000 1.000000
128 1 160.675268 69.579411 160.675268 69.579411 0.000000 0.000000 1.000000 1.000000 1.000000
129 1 153.690321 180.257378 153.690321 180.257378 -0.000000 0.000000 1.000000 1.000000 1.000000
130 1 71.825003 36.486003 71.825003 36.486003 0.000000 -0.000000 1.000000 1.000000 1.000000
131 1 167.895237 102.985659 167.895237 102.985659 0.000000 -0.000000 1.000000 1.000000 1.000000
132 1 101.488186 21.212691 101.488186 21.212691 -0.000000 0.000000 1.000000 1.000000 1.000000
133 1 155.089307 83.314434 155.089307 83.314434 -0.000000 0.000000 1.000000 1.000000 1.000000
134 1 16.576204 124.215808 16.576204 124.215808 -0.000000 0.000000 1.000000 1.000000 1.000000
135 1 79.237053 29.519308 79.237053 29.519308 -0.000000 0.000000 1.000000 1.000000 1.000000
136 1 53.484907 94.774225 53.484907 94.774225 0.000000 0.000000 1.000000 1.000000 1.000000
137 1 67.655749 19.047486 67.655749 19.047486 0.000000 0.000000 1.000000 1.000000 1.000000
138 1 83.938917 198.754753 83.938917 198.754753 0.000000 0.000000 1.000000 1.000000 1.000000
139 1 2.578629 195.033726 2.578629 195.033726 -0.000000 -0.000000 1.000000 1.000000 1.000000
140 1 179.418396 41.773061 179.418396 41.773061 -0.000000 0.000000 1.000000 1.000000 1.000000
141 1 36.636612 2.513850 36.636612 2.513850 0.000000 0.000000 1.000000 1.000000 1.000000
142 1 148.804917 211.305503 148.804917 211.305503 -0.000000 -0.000000 1.000000 1.000000 1.000000
143 1 99.328996 133.282241 99.328996 133.282241 -0.000000 -0.000000 1.000000 1.000000 1.000000
144 1 136.421212 126.615115 136.421212 126.615115 -0.000000 0.000000 1.000000 1.000000 1.000000
145 1 84.398457 129.058112 84.398457 129.058112 -0.000000 0.000000 1.000000 1.000000 1.000000
146 1 48.380891 50.075340 48.380891 50.075340 0.000000 0.000000 1.000000 1.000000 1.000000
147 1 68.114054 40.976468 68.114054 40.976468 -0.000000 -0.000000 1.000000 1.000000 1.000000
148 1 204.751638 79.556780 204.751638 79.556780 -0.000000 0.000000 1.000000 1.000000 1.000000
149 1 22.429979 125.591992 22.429979 125.591992 0.000000 -0.000000 1.000000 1.000000 1.000000
150 1 156.646966 174.874027 156.646966 174.874027 -0.000000 -0.000000 1.000000 1.000000 1.000000
151 1 202.187302 209.720913 202.187302 209.720913 0.000000 -0.000000 1.000000 1.000000 1.000000
152 1 20.332792 60.050407 20.332792 60.050407 0.000000 0.000000 1.000000 1.000000 1.000000
153 1 134.917280 111.935818 134.917280 111.935818 0.000000 -0.000000 1.000000 1.000000 1.000000
154 1 124.024095 51.700853 124.024095 51.700853 -0.000000 0.000000 1.000000 1.000000 1.000000
155 1 196.648081 17.204051 196.648081 17.204051 0.000000 -0.000000 1.000000 1.000000 1.000000
156 1 127.709270 194.198603 127.709270 194.198603 0.000000 0.000000 1.000000 1.000000 1.000000
157 1 64.710789 28.858214 64.710789 28.858214 0.000000 0.000000 1.000000 1.000000 1.000000
158 1 70.678549 69.824530 70.678549 69.824530 -0.000000 -0.000000 1.000000 1.000000 1.000000
159 1 135.077484 144.724622 135.077484 144.724622 -0.000000 0.000000 1.000000 1.000000 1.000000
160 1 22.710764 96.002528 22.710764 96.002528 -0.000000 0.000000 1.000000 1.000000 1.000000
161 1 9.219637 116.375180 9.219637 116.375180 -0.000000 -0.000000 1.000000 1.000000 1.000000
162 1 103.568128 101.655110 103.568128 101.655110 -0.000000 -0.000000 1.000000 1.000000 1.000000
163 1 165.736339 102.128802 165.736339 102.128802 -0.000000 -0.000000 1.000000 1.000000 1.000000
164 1 118.165722 217.043384 118.165722 217.043384 0.000000 0.000000 1.000000 1.000000 1.000000
165 1 205.554090 0.389479 205.554090 218.965253 -0.000000 0.000000 1.000000 1.000000 1.000000
166 1 115.127315 161.668159 115.127315 161.668159 0.000000 -0.000000 1.000000 1.000000 1.000000
167 1 129.765222 95.903543 129.765222 95.903543 0.000000 0.000000 1.000000 1.000000 1.000000
168 1 75.653098 149.335708 75.653098 149.335708 -0.000000 -0.000000 1.000000 1.000000 1.000000
169 1 6.335202 193.085358 6.335202 193.085358 0.000000 0.000000 1.000000 1.000000 1.000000
170 1 78.801519 128.099854 78.801519 128.099854 -0.000000 -0.000000 1.000000 1.000000 1.000000
171 1 84.974554 6.500198 84.974554 6.500198 -0.000000 0.000000 1.000000 1.000000 1.000000
172 1 46.407791 40.443713 46.407791 40.443713 -0.000000 -0.000000 1.000000 1.000000 1.000000
173 1 124.249663 176.325047 124.249663 176.325047 -0.000000 -0.000000 1.000000 1.000000 1.000000
174 1 116.761402 7.223384 116.761402 225.799158 -0.000000 0.000000 1.000000 1.000000 1.000000
175 1 21.295570 146.068300 21.295570 146.068300 -0.000000 -0.000000 1.000000 1.000000 1.000000
176 1 142.794089 82.207536 142.794089 82.207536 -0.000000 -0.000000 1.000000 1.000000 1.000000
177 1 107.767984 26.363216 107.767984 26.363216 -0.000000 0.000000 1.000000 1.000000 1.000000
178 1 150.059002 43.261147 150.059002 43.261147 -0.000000 -0.000000 1.000000 1.000000 1.000000
179 1 204.959307 161.126928 204.959307 161.126928 0.000000 0.000000 1.000000 1.000000 1.000000
180 1 182.009456 21.638365 182.009456 21.638365 0.000000 -0.000000 1.000000 1.000000 1.000000
181 1 136.887323 147.289791 136.887323 147.289791 -0.000000 -0.000000 1.000000 1.000000 1.000000
182 1 205.300885 49.469419 205.300885 49.469419 -0.000000 0.000000 1.000000 1.000000 1.000000
183 1 99.261900 164.012784 99.261900 164.012784 -0.000000 0.000000 1.000000 1.000000 1.000000
184 1 3.525042 185.852904 3.525042 185.852904 0.000000 -0.000000 1.000000 1.000000 1.000000
185 1 140.790895 26.551044 140.790895 26.551044 0.000000 0.000000 1.000000 1.000000 1.000000
186 1 173.478277 198.983966 173.478277 198.983966 -0.000000 0.000000 1.000000 1.000000 1.000000
187 1 200.939573 202.566772 200.939573 202.566772 -0.000000 0.000000 1.000000 1.000000 1.000000
188 1 40.029913 129.536173 40.029913 129.536173 0.000000 0.000000 1.000000 1.000000 1.000000
189 1 113.556591 0.539047 113.556591 219.114821 -0.000000 -0.000000 1.000000 1.000000 1.000000
190 1 32.375002 16.528870 32.375002 235.104644 -0.000000 -0.000000 1.000000 1.000000 1.000000
191 1 18.809408 199.152812 18.809408 199.152812 0.000000 0.000000 1.000000 1.000000 1.000000
192 1 172.039454 67.215659 172.039454 67.215659 -0.000000 0.000000 1.000000 1.000000 1.000000
193 1 181.424050 19.193093 181.424050 19.193093 0.000000 0.000000 1.000000 1.000000 1.000000
194 1 62.950443 128.456969 62.950443 128.456969 -0.000000 -0.000000 1.000000 1.000000 1.000000
195 1 208.439450 179.134671 208.439450 179.134671 0.000000 -0.000000 1.000000 1.000000 1.000000
196 1 90.762387 163.209636 90.762387 163.209636 -0.000000 -0.000000 1.000000 1.000000 1.000000
197 1 170.520816 156.884225 170.520816 156.884225 -0.000000 -0.000000 1.000000 1.000000 1.000000
198 1 170.132753 195.967425 170.132753 195.967425 0.000000 -0.000000 1.000000 1.000000 1.000000
199 1 7.160120 76.305088 7.160120 76.305088 0.000000 0.000000 1.000000 1.000000 1.000000
200 1 83.020016 178.562690 83.020016 178.562690 -0.000000 -0.000000 1.000000 1.000000 1.000000
201 1 110.269115 148.693519 110.269115 148.693519 -0.000000 -0.000000 1.000000 1.000000 1.000000
202 1 205.902385 33.813469 205.902385 33.813469 0.000000 0.000000 1.000000 1.000000 1.000000
203 1 32.705378 93.239751 32.705378 93.239751 0.000000 0.000000 1.000000 1.000000 1.000000
204 1 136.072883 115.920419 136.072883 115.920419 0.000000 -0.000000 1.000000 1.000000 1.000000
205 1 168.416508 135.930622 168.416508 135.930622 0.000000 -0.000000 1.000000 1.000000 1.000000
206 1 110.821131 72.836486 110.821131 72.836486 0.000000 0.000000 1.000000 1.000000 1.000000
207 1 132.191463 119.138130 132.191463 119.138130 -0.000000 -0.000000 1.000000 1.000000 1.000000
208 1 87.135411 130.348564 87.135411 130.348564 0.000000 -0.000000 1.000000 1.000000 1.000000
209 1 187.807959 9.198230 187.807959 9.198230 -0.000000 0.000000 1.000000 1.000000 1.000000
210 1 193.981372 94.675872 193.981372 94.675872 0.000000 -0.000000 1.000000 1.000000 1.000000
211 1 166.088841 34.820005 166.088841 34.820005 0.000000 -0.000000 1.000000 1.000000 1.000000
212 1 91.749905 71.623227 91.749905 71.623227 -0.000000 0.000000 1.000000 1.000000 1.000000
213 1 52.322091 89.751909 52.322091 89.751909 -0.000000 -0.000000 1.000000 1.000000 1.000000
214 1 110.867950 46.196110 110.867950 46.196110 -0.000000 0.000000 1.000000 1.000000 1.000000
215 1 188.617222 176.419464 188.617222 176.419464 0.000000 0.000000 1.000000 1.000000 1.000000
216 1 157.376677 159.296578 157.376677 159.296578 0.000000 0.000000 1.000000 1.000000 1.000000
217 1 64.382648 11.771580 64.382648 11.771580 -0.000000 0.000000 1.000000 1.000000 1.000000
218 1 37.821281 165.090875 37.821281 165.090875 0.000000 0.000000 1.000000 1.000000 1.000000
219 1 108.751165 24.227725 108.751165 24.227725 0.000000 0.000000 1.000000 1.000000 1.000000
220 1 149.635447 45.351824 149.635447 45.351824 -0.000000 0.000000 1.000000 1.000000 1.000000
221 1 40.727937 16.036581 40.727937 16.036581 -0.000000 -0.000000 1.000000 1.000000 1.000000
222 1 9.797106 59.591018 9.797106 59.591018 0.000000 0.000000 1.000000 1.000000 1.000000
223 1 146.069377 94.804797 146.069377 94.804797 -0.000000 0.000000 1.000000 1.000000 1.000000
224 1 199.196810 103.425100 199.196810 103.425100 0.000000 -0.000000 1.000000 1.000000 1.000000
225 1 122.819889 163.987147 122.819889 163.987147 -0.000000 0.000000 1.000000 1.000000 1.000000
226 1 165.065823 132.530157 165.065823 132.530157 0.000000 0.000000 1.000000 1.000000 1.000000
227 1 88.271711 45.782506 88.271711 45.782506 -0.000000 0.000000 1.000000 1.000000 1.000000
228 1 110.440029 26.797794 110.440029 26.797794 -0.000000 0.000000 1.000000 1.000000 1.000000
229 1 187.185594 160.369295 187.185594 160.369295 0.000000 0.000000 1.000000 1.000000 1.000000
230 1 124.913853 48.885988 124.913853 48.885988 0.000000 0.000000 1.000000 1.000000 1.000000
231 1 57.135812 141.074495 57.135812 141.074495 -0.000000 -0.000000 1.000000 1.000000 1.000000
232 1 137.633827 215.021007 137.633827 -3.554767 0.000000 0.000000 1.000000 1.000000 1.000000
233 1 193.473555 28.603283 193.473555 28.603283 0.000000 0.000000 1.000000 1.000000 1.000000
234 1 37.001953 214.000495 37.001953 -4.575279 0.000000 -0.000000 1.000000 1.000000 1.000000
235 1 180.661815 17.208125 180.661815 17.208125 -0.000000 0.000000 1.000000 1.000000 1.000000
236 1 50.885702 33.075096 50.885702 33.075096 -0.000000 -0.000000 1.000000 1.000000 1.000000
237 1 77.716420 203.645057 77.716420 203.645057 -0.000000 0.000000 1.000000 1.000000 1.000000
238 1 196.886520 188.631214 196.886520 188.631214 -0.000000 0.000000 1.000000 1.000000 1.000000
239 1 160.931767 71.932874 160.931767 71.932874 -0.000000 -0.000000 1.000000 1.000000 1.000000
240 1 136.092124 196.495443 136.092124 196.495443 -0.000000 -0.000000 1.000000 1.000000 1.000000
241 1 92.723136 196.653842 92.723136 196.653842 0.000000 0.000000 1.000000 1.000000 1.000000
242 1 66.216427 105.749569 66.216427 105.749569 -0.000000 -0.000000 1.000000 1.000000 1.000000
243 1 11.851137 138.913456 11.851137 138.913456 0.000000 0.000000 1.000000 1.000000 1.000000
244 1 146.588107 10.656334 146.588107 10.656334 -0.000000 0.000000 1.000000 1.000000 1.000000
245 1 10.983751 13.822130 10.983751 13.822130 0.000000 0.000000 1.000000 1.000000 1.000000
246 1 131.635118 180.694060 131.635118 180.694060 -0.000000 0.000000 1.000000 1.000000 1.000000
247 1 134.204920 133.346692 134.204920 133.346692 -0.000000 0.000000 1.000000 1.000000 1.000000
248 1 38.364572 83.042497 38.364572 83.042497 -0.000000 -0.000000 1.000000 1.000000 1.000000
249 1 42.038378 162.901286 42.038378 162.901286 0.000000 0.000000 1.000000 1.000000 1.000000
250 1 88.841119 210.805702 88.841119 -7.770072 0.000000 0.000000 1.000000 1.000000 1.000000
251 1 92.752438 215.597884 92.752438 -2.977890 0.000000 -0.000000 1.000000 1.000000 1.000000
252 1 81.540075 166.466750 81.540075 166.466750 0.000000 -0.000000 1.000000 1.000000 1.000000
253 1 202.047012 78.258804 202.047012 78.258804 -0.000000 0.000000 1.000000 1.000000 1.000000
254 1 210.090526 187.913567 210.090526 187.913567 -0.000000 0.000000 1.000000 1.000000 1.000000
255 1 140.755000 100.196611 140.755000 100.196611 0.000000 -0.000000 1.000000 1.000000 1.000000
256 1 56.612410 208.149874 56.612410 208.149874 0.000000 0.000000 1.000000 1.000000 1.000000
257 1 120.252699 38.814282 120.252699 38.814282 0.000000 -0.000000 1.000000 1.000000 1.000000
258 1 150.342691 164.274159 150.342691 164.274159 0.000000 0.000000 1.000000 1.000000 1.000000
259 1 38.511492 23.502383 38.511492 23.502383 0.000000 0.000000 1.000000 1.000000 1.000000
260 1 126.049700 42.377628 126.049700 42.377628 0.000000 -0.000000 1.000000 1.000000 1.000000
261 1 193.077918 0.716565 193.077918 219.292339 -0.000000 0.000000 1.000000 1.000000 1.000000
262 1 210.572995 13.519936 210.572995 13.519936 -0.000000 0.000000 1.000000 1.000000 1.000000
263 1 34.104855 104.945523 34.104855 104.945523 -0.000000 0.000000 1.000000 1.000000 1.000000
264 1 183.351562 72.751487 183.351562 72.751487 -0.000000 0.000000 1.000000 1.000000 1.000000
265 1 200.737374 90.585658 200.737374 90.585658 0.000000 0.000000 1.000000 1.000000 1.000000
266 1 201.145063 134.754649 -17.430711 134.754649 0.000000 0.000000 1.000000 1.000000 1.000000
267 1 116.326576 167.886120 116.326576 167.886120 0.000000 0.000000 1.000000 1.000000 1.000000
268 1 51.613897 131.145550 51.613897 131.145550 0.000000 -0.000000 1.000000 1.000000 1.000000
269 1 165.276112 113.040324 165.276112 113.040324 0.000000 0.000000 1.000000 1.000000 1.000000
270 1 91.413828 65.616191 91.413828 65.616191 -0.000000 -0.000000 1.000000 1.000000 1.000000
271 1 43.520663 50.301317 43.520663 50.301317 -0.000000 0.000000 1.000000 1.000000 1.000000
272 1 208.664584 52.831537 208.664584 52.831537 -0.000000 0.000000 1.000000 1.000000 1.000000
273 1 50.052947 202.078475 50.052947 202.078475 -0.000000 0.000000 1.000000 1.000000 1.000000
274 1 163.169301 65.739187 163.169301 65.739187 0.000000 -0.000000 1.000000 1.000000 1.000000
275 1 148.497917 58.375419 148.497917 58.375419 -0.000000 -0.000000 1.000000 1.000000 1.000000
276 1 150.992467 162.054786 150.992467 162.054786 -0.000000 -0.000000 1.000000 1.000000 1.000000
277 1 102.652534 40.202434 102.652534 40.202434 -0.000000 0.000000 1.000000 1.000000 1.000000
278 1 42.599976 141.610257 42.599976 141.610257 0.000000 0.000000 1.000000 1.000000 1.000000
279 1 28.361206 93.799798 28.361206 93.799798 0.000000 0.000000 1.000000 1.000000 1.000000
280 1 209.149798 73.078932 209.149798 73.078932 0.000000 -0.000000 1.000000 1.000000 1.000000
281 1 32.186187 42.003455 32.186187 42.003455 0.000000 0.000000 1.000000 1.000000 1.000000
282 1 59.936864 89.572454 59.936864 89.572454 -0.000000 -0.000000 1.000000 1.000000 1.000000
283 1 209.684832 102.247609 209.684832 102.247609 0.000000 0.000000 1.000000 1.000000 1.000000
284 1 46.995795 124.203817 46.995795 124.203817 -0.000000 -0.000000 1.000000 1.000000 1.000000
285 1 38.602401 78.860050 38.602401 78.860050 -0.000000 0.000000 1.000000 1.000000 1.000000
286 1 164.770870 60.491842 164.770870 60.491842 -0.000000 -0.000000 1.000000 1.000000 1.000000
287 1 147.865984 129.145692 147.865984 129.145692 -0.000000 0.000000 1.000000 1.000000 1.000000
288 1 87.435523 25.762381 87.435523 25.762381 0.000000 0.000000 1.000000 1.000000 1.000000
289 1 104.884807 161.766852 104.884807 161.766852 -0.000000 -0.000000 1.000000 1.000000 1.000000
290 1 149.840293 69.779452 149.840293 69.779452 -0.000000 0.000000 1.000000 1.000000 1.000000
291 1 14.266193 28.922981 14.266193 28.922981 -0.000000 -0.000000 1.000000 1.000000 1.000000
292 1 46.527407 105.718283 46.527407 105.718283 0.000000 -0.000000 1.000000 1.000000 1.000000
293 1 1.904414 159.964601 1.904414 159.964601 0.000000 0.000000 1.000000 1.000000 1.000000
294 1 111.957260 39.243938 111.957260 39.243938 -0.000000 -0.000000 1.000000 1.000000 1.000000
295 1 81.761344 5.630349 81.761344 224.206123 0.000000 -0.000000 1.000000 1.000000 1.000000
296 1 107.720883 171.949466 107.720883 171.949466 -0.000000 -0.000000 1.000000 1.000000 1.000000
297 1 51.672496 47.649826 51.672496 47.649826 0.000000 0.000000 1.000000 1.000000 1.000000
298 1 195.374872 204.457874 195.374872 204.457874 0.000000 -0.000000 1.000000 1.000000 1.000000
299 1 132.420406 132.281666 132.420406 132.281666 -0.000000 -0.000000 1.000000 1.000000 1.000000
300 1 169.866328 104.780067 169.866328 104.780067 -0.000000 -0.000000 1.000000 1.000000 1.000000
301 1 87.216876 137.674935 87.216876 137.674935 0.000000 0.000000 1.000000 1.000000 1.000000
302 1 204.972846 100.705572 -13.602928 100.705572 -0.000000 -0.000000 1.000000 1.000000 1.000000
303 1 100.977260 23.237238 100.977260 23.237238 0.000000 -0.000000 1.000000 1.000000 1.000000
304 1 15.499447 95.745950 15.499447 95.745950 0.000000 -0.000000 1.000000 1.000000 1.000000
305 1 213.818229 207.257212 213.818229 207.257212 0.000000 -0.000000 1.000000 1.000000 1.000000
306 1 197.663048 208.409640 197.663048 208.409640 0.000000 -0.000000 1.000000 1.000000 1.000000
307 1 11.258494 36.391475 11.258494 36.391475 -0.000000 -0.000000 1.000000 1.000000 1.000000
308 1 21.826574 184.177498 21.826574 184.177498 -0.000000 -0.000000 1.000000 1.000000 1.000000
309 1 173.898701 27.121086 173.898701 27.121086 0.000000 0.000000 1.000000 1.000000 1.000000
310 1 115.160666 46.236867 115.160666 46.236867 -0.000000 0.000000 1.000000 1.000000 1.000000
311 1 197.256061 123.240738 197.256061 123.240738 -0.000000 0.000000 1.000000 1.000000 1.000000
312 1 133.206711 93.852907 133.206711 93.852907 0.000000 -0.000000 1.000000 1.000000 1.000000
313 1 19.947660 162.607415 19.947660 162.607415 -0.000000 0.000000 1.000000 1.000000 1.000000
314 1 149.076335 216.547981 149.076335 216.547981 0.000000 0.000000 1.000000 1.000000 1.000000
315 1 90.788902 150.954389 90.788902 150.954389 -0.000000 0.000000 1.000000 1.000000 1.000000
316 1 166.494083 161.082343 166.494083 161.082343 -0.000000 -0.000000 1.000000 1.000000 1.000000
317 1 185.574918 198.437934 185.574918 198.437934 -0.000000 -0.000000 1.000000 1.000000 1.000000