ITEM: TIMESTEP
3100.000000
ITEM: NUMBER OF ATOMS
5000
ITEM: BOX BOUNDS xy xz yz
0 260.307196 0
0 260.307196 0
0 2 0
ITEM: ATOMS id type x y xu yu vx vy radius m z
0 1 15.279938 28.435782 275.587134 288.742978 0.000000 -0.000000 1.000000 1.000000 1.000000
1 1 196.383630 191.088751 196.383630 191.088751 -0.000000 -0.000000 1.000000 1.000000 1.000000
2 1 4.568070 94.530438 264.875266 94.530438 -0.000000 -0.000000 1.000000 1.000000 1.000000
3 1 112.719683 173.279321 112.719683 173.279321 0.000000 -0.000000 1.000000 1.000000 1.000000
4 1 12.180531 253.103404 12.180531 253.103404 -0.000000 0.000000 1.000000 1.000000 1.000000
5 1 18.705500 177.053974 18.705500 177.053974 0.000000 -0.000000 1.000000 1.000000 1.000000
6 1 191.286800 190.521246 191.286800 190.521246 -0.000000 0.000000 1.000000 1.000000 1.000000
7 1 225.531691 105.889902 -34.775505 105.889902 -0.000000 -0.000000 1.000000 1.000000 1.000000
8 1 99.988011 15.512848 99.988011 275.820044 0.000000 0.000000 1.000000 1.000000 1.000000
9 1 123.899480 205.049744 123.899480 205.049744 0.000000 0.000000 1.000000 1.000000 1.000000
10 1 162.286316 89.420719 162.286316 89.420719 0.000000 -0.000000 1.000000 1.000000 1.000000
11 1 203.609685 46.164782 203.609685 46.164782 0.000000 -0.000000 1.000000 1.000000 1.000000
12 1 205.450523 71.805486 205.450523 71.805486 0.000000 0.000000 1.000000 1.000000 1.000000
13 1 246.916286 137.804349 -13.390910 137.804349 0.000000 -0.000000 1.000000 1.000000 1.000000
14 1 236.516029 21.964856 236.516029 21.964856 0.000000 0.000000 1.000000 1.000000 1.000000
15 1 67.068603 59.676325 67.068603 59.676325 -0.000000 -0.000000 1.000000 1.000000 1.000000
16 1 111.813492 35.543774 111.813492 35.543774 -0.000000 -0.000000 1.000000 1.000000 1.000000
17 1 236.273432 242.382603 236.273432 242.382603 -0.000000 -0.000000 1.000000 1.000000 1.000000
18 1 250.029779 36.955151 -10.277417 36.955151 -0.000000 0.000000 1.000000 1.000000 1.000000
19 1 181.405394 170.547941 181.405394 170.547941 -0.000000 0.000000 1.000000 1.000000 1.000000
20 1 74.004409 97.728319 74.004409 97.728319 -0.000000 0.000000 1.000000 1.000000 1.000000
21 1 80.307125 42.976731 80.307125 42.976731 -0.000000 -0.000000 1.000000 1.000000 1.000000
22 1 163.906667 220.196519 163.906667 220.196519 0.000000 -0.000000 1.000000 1.000000 1.000000
23 1 258.423319 105.473937 258.423319 105.473937 0.000000 0.000000 1.000000 1.000000 1.000000
24 1 207.194330 92.994453 207.194330 92.994453 0.000000 0.000000 1.000000 1.000000 1.000000
25 1 4.526166 249.677379 4.526166 249.677379 0.000000 0.000000 1.000000 1.000000 1.000000
26 1 163.292184 198.602282 163.292184 198.602282 0.000000 0.000000 1.000000 1.000000 1.000000
27 1 137.925327 238.839863 137.925327 238.839863 0.000000 -0.000000 1.000000 1.000000 1.000000
28 1 123.774343 72.816627 123.774343 72.816627 0.000000 0.000000 1.000000 1.000000 1.000000
29 1 229.235214 31.176992 229.235214 31.176992 0.000000 0.000000 1.000000 1.000000 1.000000
30 1 5.268294 79.871465 5.268294 79.871465 -0.000000 0.000000 1.000000 1.000000 1.000000
31 1 191.886861 70.985462 191.886861 70.985462 -0.000000 -0.000000 1.000000 1.000000 1.000000
32 1 226.565351 96.104031 226.565351 96.104031 -0.000000 0.000000 1.000000 1.000000 1.000000
33 1 145.062768 120.422115 145.062768 120.422115 0.000000 -0.000000 1.000000 1.000000 1.000000
34 1 67.033632 50.123443 67.033632 50.123443 -0.000000 0.000000 1.000000 1.000000 1.000000
35 1 218.981113 99.999513 218.981113 99.999513 -0.000000 -0.000000 1.000000 1.000000 1.000000
36 1 157.083872 2.476644 157.083872 2.476644 -0.000000 0.000000 1.000000 1.000000 1.000000
37 1 228.151244 141.275699 228.151244 141.275699 -0.000000 -0.000000 1.000000 1.000000 1.000000
38 1 207.764239 20.758021 207.764239 20.758021 0.000000 -0.000000 1.000000 1.000000 1.000000
39 1 211.000006 179.469262 211.000006 179.469262 0.000000 0.000000 1.000000 1.000000 1.000000
40 1 219.099019 138.619773 219.099019 138.619773 0.000000 0.000000 1.000000 1.000000 1.000000
41 1 252.751304 178.246210 252.751304 178.246210 0.000000 0.000000 1.000000 1.000000 1.000000
42 1 142.424667 213.963693 142.424667 213.963693 -0.000000 0.000000 1.000000 1.000000 1.000000
43 1 217.660178 195.581934 217.660178 195.581934 0.000000 -0.000000 1.000000 1.000000 1.000000
44 1 175.593239 216.948166 175.593239 216.948166 -0.000000 0.000000 1.000000 1.000000 1.000000
45 1 52.704408 253.011428 52.704408 253.011428 0.000000 0.000000 1.000000 1.000000 1.000000
46 1 148.263787 20.188537 148.263787 280.495733 -0.000000 -0.000000 1.000000 1.000000 1.000000
47 1 175.198213 180.026817 175.198213 180.026817 -0.000000 0.000000 1.000000 1.000000 1.000000
48 1 221.403503 214.641835 221.403503 214.641835 0.000000 0.000000 1.000000 1.000000 1.000000
49 1 238.620745 68.221170 238.620745 68.221170 0.000000 -0.000000 1.000000 1.000000 1.000000
50 1 176.300613 11.807583 176.300613 11.807583 -0.000000 -0.000000 1.000000 1.000000 1.000000
51 1 191.361198 231.852062 191.361198 231.852062 -0.000000 -0.000000 1.000000 1.000000 1.000000
52 1 82.026490 6.900302 82.026490 6.900302 0.000000 -0.000000 1.000000 1.000000 1.000000
53 1 89.170974 171.186117 89.170974 171.186117 -0.000000 -0.000000 1.000000 1.000000 1.000000
54 1 33.306563 215.396837 33.306563 215.396837 0.000000 -0.000000 1.000000 1.000000 1.000000
55 1 4.199614 186.243827 4.199614 186.243827 0.000000 -0.000000 1.000000 1.000000 1.000000
56 1 101.299665 25.518848 101.299665 25.518848 -0.000000 -0.000000 1.000000 1.000000 1.000000
57 1 107.696119 140.796790 107.696119 140.796790 0.000000 0.000000 1.000000 1.000000 1.000000
58 1 80.870693 40.582587 80.870693 40.582587 -0.000000 -0.000000 1.000000 1.000000 1.000000
59 1 103.752115 244.546975 103.752115 244.546975 -0.000000 0.000000 1.000000 1.000000 1.000000
60 1 167.965287 137.043510 167.965287 137.043510 -0.000000 -0.000000 1.000000 1.000000 1.000000
61 1 186.868109 193.455798 186.868109 193.455798 0.000000 0.000000 1.000000 1.000000 1.000000
62 1 220.657866 89.954738 220.657866 89.954738 0.000000 0.000000 1.000000 1.000000 1.000000
63 1 149.696388 98.918060 149.696388 98.918060 -0.000000 0.000000 1.000000 1.000000 1.000000
64 1 242.232607 219.785685 242.232607 219.785685 -0.000000 -0.000000 1.000000 1.000000 1.000000
65 1 48.102752 68.559612 48.102752 68.559612 0.000000 0.000000 1.000000 1.000000 1.000000
66 1 50.423191 247.287191 50.423191 247.287191 -0.000000 0.000000 1.000000 1.000000 1.000000
67 1 124.685745 108.040247 124.685745 108.040247 0.000000 0.000000 1.000000 1.000000 1.000000
68 1 150.336070 18.546961 150.336070 278.854157 -0.000000 -0.000000 1.000000 1.000000 1.000000
69 1 122.704217 130.895901 122.704217 130.895901 -0.000000 0.000000 1.000000 1.000000 1.000000
70 1 46.083882 175.636738 46.083882 175.636738 -0.000000 -0.000000 1.000000 1.000000 1.000000
71 1 96.966291 247.998743 96.966291 247.998743 -0.000000 0.000000 1.000000 1.000000 1.000000
72 1 131.336719 238.690519 131.336719 238.690519 0.000000 0.000000 1.000000 1.000000 1.000000
73 1 82.170522 60.558479 82.170522 60.558479 0.000000 -0.000000 1.000000 1.000000 1.000000
74 1 74.454380 52.909174 74.454380 52.909174 -0.000000 0.000000 1.000000 1.000000 1.000000
75 1 105.790936 2.469724 105.790936 262.776920 0.000000 -0.000000 1.000000 1.000000 1.000000
76 1 208.001809 95.323728 208.001809 95.323728 0.000000 0.000000 1.000000 1.000000 1.000000
77 1 46.988954 38.655827 46.988954 38.655827 0.000000 0.000000 1.000000 1.000000 1.000000
78 1 184.775184 254.608715 184.775184 -5.698481 0.000000 0.000000 1.000000 1.000000 1.000000
79 1 67.023478 226.173563 67.023478 226.173563 -0.000000 0.000000 1.000000 1.000000 1.000000
80 1 250.144591 168.327046 250.144591 168.327046 0.000000 -0.000000 1.000000 1.000000 1.000000
81 1 45.717676 0.942186 45.717676 261.249382 -0.000000 -0.000000 1.000000 1.000000 1.000000
82 1 250.782183 61.589856 250.782183 61.589856 -0.000000 -0.000000 1.000000 1.000000 1.000000
83 1 150.790745 166.562239 150.790745 166.562239 -0.000000 0.000000 1.000000 1.000000 1.000000
84 1 195.070549 199.068527 195.070549 199.068527 -0.000000 0.000000 1.000000 1.000000 1.000000
85 1 253.295730 109.605417 253.295730 109.605417 -0.000000 0.000000 1.000000 1.000000 1.000000
86 1 48.847989 115.487657 48.847989 115.487657 0.000000 0.000000 1.000000 1.000000 1.000000
87 1 130.233856 188.241899 130.233856 188.241899 -0.000000 0.000000 1.000000 1.000000 1.000000
88 1 106.097581 8.285465 106.097581 8.285465 -0.000000 -0.000000 1.000000 1.000000 1.000000
89 1 130.570456 230.228469 130.570456 230.228469 -0.000000 0.000000 1.000000 1.000000 1.000000
90 1 215.359906 125.327823 215.359906 125.327823 0.000000 -0.000000 1.000000 1.000000 1.000000
91 1 123.899679 168.941069 123.899679 168.941069 0.000000 0.000000 1.000000 1.000000 1.000000
92 1 3.051311 176.258973 3.051311 176.258973 -0.000000 -0.000000 1.000000 1.000000 1.000000
93 1 168.741127 107.394588 168.741127 107.394588 0.000000 0.000000 1.000000 1.000000 1.000000
94 1 0.072833 138.200016 260.380029 138.200016 -0.000000 -0.000000 1.000000 1.000000 1.000000
95 1 37.540385 255.622486 37.540385 255.622486 -0.000000 -0.000000 1.000000 1.000000 1.000000
96 1 16.895825 143.735833 16.895825 143.735833 -0.000000 -0.000000 1.000000 1.000000 1.000000
97 1 97.236409 250.952838 97.236409 250.952838 -0.000000 -0.000000 1.000000 1.000000 1.000000
98 1 98.632448 186.780451 98.632448 186.780451 0.000000 0.000000 1.000000 1.000000 1.000000
99 1 43.971345 70.354151 43.971345 70.354151 -0.000000 0.000000 1.000000 1.000000 1.000000
100 1 224.335522 255.156316 224.335522 255.156316 0.000000 0.000000 1.000000 1.000000 1.000000
101 1 33.530737 35.102648 33.530737 35.102648 0.000000 0.000000 1.000000 1.000000 1.000000
102 1 143.528245 69.878610 143.528245 69.878610 -0.000000 0.000000 1.000000 1.000000 1.000000
103 1 79.969662 195.296935 79.969662 195.296935 -0.000000 0.000000 1.000000 1.000000 1.000000
104 1 18.957039 171.168101 18.957039 171.168101 -0.000000 0.000000 1.000000 1.000000 1.000000
105 1 241.477533 46.037628 241.477533 46.037628 -0.000000 0.000000 1.000000 1.000000 1.000000
106 1 209.754133 158.336587 209.754133 158.336587 0.000000 0.000000 1.000000 1.000000 1.000000
107 1 126.354364 48.295898 126.354364 48.295898 -0.000000 -0.000000 1.000000 1.000000 1.000000
108 1 182.006891 187.635675 182.006891 187.635675 0.000000 0.000000 1.000000 1.000000 1.000000
109 1 28.869818 198.386485 28.869818 198.386485 -0.000000 -0.000000 1.000000 1.000000 1.000000
110 1 155.158802 178.846431 155.158802 178.846431 0.000000 0.000000 1.000000 1.000000 1.000000
111 1 193.487524 161.772604 193.487524 161.772604 0.000000 0.000000 1.000000 1.000000 1.000000
112 1 76.657047 19.979603 76.657047 280.286799 0.000000 -0.000000 1.000000 1.000000 1.000000
113 1 71.458258 165.830425 71.458258 165.830425 -0.000000 0.000000 1.000000 1.000000 1.000000
114 1 132.616155 34.829372 132.616155 34.829372 0.000000 -0.000000 1.000000 1.000000 1.000000
115 1 101.084223 98.048912 101.084223 98.048912 -0.000000 -0.000000 1.000000 1.000000 1.000000
116 1 167.841715 195.177007 167.841715 195.177007 -0.000000 0.000000 1.000000 1.000000 1.000000
117 1 109.071559 153.350963 109.071559 153.350963 0.000000 0.000000 1.000000 1.000000 1.000000
118 1 130.612716 31.453607 130.612716 31.453607 0.000000 -0.000000 1.000000 1.000000 1.000000
119 1 32.070928 232.472757 32.070928 232.472757 0.000000 -0.000000 1.000000 1.000000 1.000000
120 1 65.403732 102.787125 65.403732 102.787125 -0.000000 -0.000000 1.000000 1.000000 1.000000
121 1 35.489314 175.078238 35.489314 175.078238 -0.000000 0.000000 1.000000 1.000000 1.000000
122 1 89.765077 36.910678 89.765077 36.910678 -0.000000 -0.000000 1.000000 1.000000 1.000000
123 1 23.864062 95.123245 23.864062 95.123245 -0.000000 0.000000 1.000000 1.000000 1.000000
124 1 107.781710 156.560466 107.781710 156.560466 -0.000000 0.000000 1.000000 1.000000 1.000000
125 1 225.235600 258.427351 225.235600 258.427351 -0.000000 0.000000 1.000000 1.000000 1.000000
126 1 241.216913 122.862286 241.216913 122.862286 0.000000 -0.000000 1.000000 1.000000 1.000000
127 1 95.792311 141.821811 95.792311 141.821811 -0.000000 -0.000000 1.000000 1.000000 1.000000
128 1 35.331051 78.791131 35.331051 78.791131 0.000000 -0.000000 1.000000 1.000000 1.000000
129 1 54.151856 149.594529 54.151856 149.594529 0.000000 0.000000 1.000000 1.000000 1.000000
130 1 133.312435 80.621271 133.312435 80.621271 0.000000 -0.000000 1.000000 1.000000 1.000000
131 1 106.294847 212.013559 106.294847 212.013559 -0.000000 0.000000 1.000000 1.000000 1.000000
132 1 224.872209 34.181394 224.872209 34.181394 -0.000000 -0.000000 1.000000 1.000000 1.000000
133 1 180.875100 144.570845 180.875100 144.570845 0.000000 -0.000000 1.000000 1.000000 1.000000
134 1 169.607752 23.687326 169.607752 283.994522 -0.000000 -0.000000 1.000000 1.000000 1.000000
135 1 53.828819 19.917124 53.828819 19.917124 -0.000000 -0.000000 1.000000 1.000000 1.000000
136 1 191.834997 92.900236 191.834997 92.900236 -0.000000 0.000000 1.000000 1.000000 1.000000
137 1 252.345680 257.220301 252.345680 -3.086895 -0.000000 -0.000000 1.000000 1.000000 1.000000
138 1 230.196604 33.474844 230.196604 33.474844 0.000000 -0.000000 1.000000 1.000000 1.000000
139 1 23.697979 215.315390 23.697979 215.315390 -0.000000 0.000000 1.000000 1.000000 1.000000
140 1 155.668536 143.150341 155.668536 143.150341 0.000000 -0.000000 1.000000 1.000000 1.000000
141 1 239.157037 181.358759 -21.150159 181.358759 -0.000000 0.000000 1.000000 1.000000 1.000000
142 1 22.604218 124.054027 22.604218 124.054027 0.000000 0.000000 1.000000 1.000000 1.000000
143 1 74.776352 128.893927 74.776352 128.893927 -0.000000 -0.000000 1.000000 1.000000 1.000000
144 1 159.336939 22.322561 159.336939 22.322561 -0.000000 -0.000000 1.000000 1.000000 1.000000
145 1 171.959654 248.451468 171.959654 248.451468 0.000000 0.000000 1.000000 1.000000 1.000000
146 1 161.207189 35.379800 161.207189 35.379800 0.000000 0.000000 1.000000 1.000000 1.000000
147 1 125.956391 1.158302 125.956391 1.158302 -0.000000 0.000000 1.000000 1.000000 1.000000
148 1 232.070019 235.811696 -28.237177 235.811696 -0.000000 0.000000 1.000000 1.000000 1.000000
149 1 59.536731 195.966225 59.536731 195.966225 0.000000 -0.000000 1.000000 1.000000 1.000000
150 1 70.574516 177.063454 70.574516 177.063454 -0.000000 -0.000000 1.000000 1.000000 1.000000
151 1 255.460721 132.736456 255.460721 132.736456 -0.000000 -0.000000 1.000000 1.000000 1.000000
152 1 67.098809 72.705844 67.098809 72.705844 0.000000 0.000000 1.000000 1.000000 1.000000
153 1 241.346416 235.430283 241.346416 235.430283 -0.000000 0.000000 1.000000 1.000000 1.000000
154 1 55.862540 127.876151 55.862540 127.876151 -0.000000 0.000000 1.000000 1.000000 1.000000
155 1 141.306369 206.024784 141.306369 206.024784 0.000000 0.000000 1.000000 1.000000 1.000000
156 1 251.747555 59.410812 251.747555 59.410812 0.000000 0.000000 1.000000 1.000000 1.000000
157 1 249.895312 121.002580 -10.411884 121.002580 0.000000 -0.000000 1.000000 1.000000 1.000000
158 1 253.610608 65.720218 253.610608 65.720218 0.000000 -0.000000 1.000000 1.000000 1.000000
159 1 7.929224 248.554470 7.929224 -11.752726 0.000000 -0.000000 1.000000 1.000000 1.000000
160 1 230.116666 201.193693 230.116666 201.193693 -0.000000 0.000000 1.000000 1.000000 1.000000
161 1 80.619756 235.295599 80.619756 235.295599 0.000000 -0.000000 1.000000 1.000000 1.000000
162 1 40.025576 169.819515 40.025576 169.819515 0.000000 0.000000 1.000000 1.000000 1.000000
163 1 245.752205 254.372410 245.752205 254.372410 0.000000 0.000000 1.000000 1.000000 1.000000
164 1 90.505153 88.906962 90.505153 88.906962 -0.000000 0.000000 1.000000 1.000000 1.000000
165 1 84.332511 75.914484 84.332511 75.914484 0.000000 0.000000 1.000000 1.000000 1.000000
166 1 6.612618 252.830060 266.919814 252.830060 0.000000 0.000000 1.000000 1.000000 1.000000
167 1 246.891279 157.920390 246.891279 157.920390 -0.000000 0.000000 1.000000 1.000000 1.000000
168 1 142.756630 152.112557 142.756630 152.112557 0.000000 -0.000000 1.000000 1.000000 1.000000
169 1 160.960183 6.254904 160.960183 266.562100 0.000000 0.000000 1.000000 1.000000 1.000000
170 1 68.808830 191.892509 68.808830 191.892509 0.000000 -0.000000 1.000000 1.000000 1.000000
171 1 230.533985 173.757202 230.533985 173.757202 0.000000 -0.000000 1.000000 1.000000 1.000000
172 1 185.344332 99.641089 185.344332 99.641089 -0.000000 -0.000000 1.000000 1.000000 1.000000
173 1 139.449763 225.238903 139.449763 225.238903 -0.000000 0.000000 1.000000 1.000000 1.000000
174 1 44.060967 3.344049 44.060967 263.651245 -0.000000 0.000000 1.000000 1.000000 1.000000
175 1 109.494906 10.132483 109.494906 10.132483 -0.000000 0.000000 1.000000 1.000000 1.000000
176 1 117.967731 158.107736 117.967731 158.107736 0.000000 -0.000000 1.000000 1.000000 1.000000
177 1 66.264808 33.063618 66.264808 33.063618 0.000000 0.000000 1.000000 1.000000 1.000000
178 1 222.756309 47.003712 222.756309 47.003712 0.000000 0.000000 1.000000 1.000000 1.000000
179 1 149.302768 93.000446 149.302768 93.000446 0.000000 -0.000000 1.000000 1.000000 1.000000
180 1 87.575876 244.976755 87.575876 244.976755 -0.000000 0.000000 1.000000 1.000000 1.000000
181 1 57.687673 173.340275 57.687673 173.340275 -0.000000 -0.000000 1.000000 1.000000 1.000000
182 1 144.915978 168.432157 144.915978 168.432157 0.000000 -0.000000 1.000000 1.000000 1.000000
183 1 8.347637 222.948764 8.347637 222.948764 0.000000 -0.000000 1.000000 1.000000 1.000000
184 1 89.854870 86.161609 89.854870 86.161609 -0.000000 0.000000 1.000000 1.000000 1.000000
185 1 124.235759 129.473340 124.235759 129.473340 -0.000000 -0.000000 1.000000 1.000000 1.000000
186 1 185.984980 88.072120 185.984980 88.072120 0.000000 0.000000 1.000000 1.000000 1.000000
187 1 22.906929 217.979577 22.906929 217.979577 0.000000 -0.000000 1.000000 1.000000 1.000000
188 1 247.493448 20.272371 -12.813748 280.579567 -0.000000 -0.000000 1.000000 1.000000 1.000000
189 1 153.721640 192.006865 153.721640 192.006865 -0.000000 -0.000000 1.000000 1.000000 1.000000
190 1 20.553177 79.135720 20.553177 79.135720 0.000000 0.000000 1.000000 1.000000 1.000000
191 1 124.022667 190.496653 124.022667 190.496653 -0.000000 0.000000 1.000000 1.000000 1.000000
192 1 79.179292 38.416842 79.179292 38.416842 0.000000 0.000000 1.000000 1.000000 1.000000
193 1 224.668028 194.643850 224.668028 194.643850 -0.000000 -0.000000 1.000000 1.000000 1.000000
194 1 133.081348 169.554495 133.081348 169.554495 0.000000 0.000000 1.000000 1.000000 1.000000
195 1 32.724517 245.548778 32.724517 245.548778 -0.000000 -0.000000 1.000000 1.000000 1.000000
196 1 253.752875 134.254736 -6.554321 134.254736 -0.000000 0.000000 1.000000 1.000000 1.000000
197 1 229.158322 57.008513 229.158322 57.008513 -0.000000 -0.000000 1.000000 1.000000 1.000000
198 1 206.117932 49.795158 206.117932 49.795158 -0.000000 -0.000000 1.000000 1.000000 1.000000
199 1 19.162538 242.651457 19.162538 242.651457 -0.000000 0.000000 1.000000 1.000000 1.000000
200 1 198.971557 101.123571 198.971557 101.123571 -0.000000 -0.000000 1.000000 1.000000 1.000000
201 1 29.521493 254.901650 29.521493 -5.405546 0.000000 0.000000 1.000000 1.000000 1.000000
202 1 173.355654 237.026076 173.355654 237.026076 -0.000000 -0.000000 1.000000 1.000000 1.000000
203 1 143.442753 34.156676 143.442753 34.156676 -0.000000 -0.000000 1.000000 1.000000 1.000000
204 1 149.037714 216.771887 149.037714 216.771887 0.000000 -0.000000 1.000000 1.000000 1.000000
205 1 27.885165 104.876350 27.885165 104.876350 -0.000000 -0.000000 1.000000 1.000000 1.000000
206 1 77.134622 79.957775 77.134622 79.957775 -0.000000 0.000000 1.000000 1.000000 1.000000
207 1 217.128685 43.362997 217.128685 43.362997 0.000000 0.000000 1.000000 1.000000 1.000000
208 1 212.298208 89.625689 212.298208 89.625689 0.000000 -0.000000 1.000000 1.000000 1.000000
209 1 150.501552 184.162435 150.501552 184.162435 0.000000 -0.000000 1.000000 1.000000 1.000000
210 1 119.389831 112.834873 119.389831 112.834873 0.000000 -0.000000 1.000000 1.000000 1.000000
211 1 172.516416 254.018902 172.516416 -6.288294 -0.000000 -0.000000 1.000000 1.000000 1.000000
212 1 205.589478 172.886666 205.589478 172.886666 0.000000 -0.000000 1.000000 1.000000 1.000000
213 1 241.309574 255.687974 241.309574 255.687974 0.000000 0.000000 1.000000 1.000000 1.000000
214 1 123.431043 173.753770 123.431043 173.753770 -0.000000 0.000000 1.000000 1.000000 1.000000
215 1 157.783026 108.529316 157.783026 108.529316 0.000000 0.000000 1.000000 1.000000 1.000000
216 1 181.867186 49.647703 181.867186 49.647703 0.000000 -0.000000 1.000000 1.000000 1.000000
217 1 212.673752 143.992278 212.673752 143.992278 -0.000000 0.000000 1.000000 1.000000 1.000000
218 1 205.086786 121.715637 205.086786 121.715637 0.000000 -0.000000 1.000000 1.000000 1.000000
219 1 63.107600 242.531641 63.107600 242.531641 0.000000 0.000000 1.000000 1.000000 1.000000
220 1 40.913833 84.878703 40.913833 84.878703 -0.000000 -0.000000 1.000000 1.000000 1.000000
221 1 122.883821 179.441720 122.883821 179.441720 -0.000000 0.000000 1.000000 1.000000 1.000000
222 1 226.010350 71.748489 226.010350 71.748489 0.000000 -0.000000 1.000000 1.000000 1.000000
223 1 8.078468 165.063855 8.078468 165.063855 -0.000000 0.000000 1.000000 1.000000 1.000000
224 1 231.378361 39.708218 231.378361 39.708218 -0.000000 -0.000000 1.000000 1.000000 1.000000
225 1 211.364523 59.458168 211.364523 59.458168 -0.000000 0.000000 1.000000 1.000000 1.000000
226 1 121.757195 192.328348 121.757195 192.328348 0.000000 0.000000 1.000000 1.000000 1.000000
227 1 121.688673 119.957409 121.688673 119.957409 0.000000 -0.000000 1.000000 1.000000 1.000000
228 1 131.833995 119.915055 131.833995 119.915055 -0.000000 -0.000000 1.000000 1.000000 1.000000
229 1 164.923727 168.725300 164.923727 168.725300 0.000000 0.000000 1.000000 1.000000 1.000000
230 1 222.790820 149.434629 222.790820 149.434629 0.000000 -0.000000 1.000000 1.000000 1.000000
231 1 50.565738 217.852603 50.565738 217.852603 0.000000 0.000000 1.000000 1.000000 1.000000
232 1 143.441584 231.279136 143.441584 -29.028060 -0.000000 0.000000 1.000000 1.000000 1.000000
233 1 15.820964 207.140361 15.820964 207.140361 0.000000 -0.000000 1.000000 1.000000 1.000000
234 1 80.940566 214.158517 80.940566 -46.148679 0.000000 0.000000 1.000000 1.000000 1.000000
235 1 37.321776 5.949859 37.321776 5.949859 0.000000 -0.000000 1.000000 1.000000 1.000000
236 1 240.857248 161.173575 240.857248 161.173575 -0.000000 -0.000000 1.000000 1.000000 1.000000
237 1 223.783707 120.289743 223.783707 120.289743 -0.000000 0.000000 1.000000 1.000000 1.000000
238 1 247.779150 134.324310 247.779150 134.324310 0.000000 -0.000000 1.000000 1.000000 1.000000
239 1 33.249485 188.377531 33.249485 188.377531 -0.000000 0.000000 1.000000 1.000000 1.000000
240 1 160.805326 78.358177 160.805326 78.358177 -0.000000 -0.000000 1.000000 1.000000 1.000000
241 1 204.471783 229.475249 204.471783 229.475249 0.000000 0.000000 1.000000 1.000000 1.000000
242 1 100.496725 137.199934 100.496725 137.199934 0.000000 0.000000 1.000000 1.000000 1.000000
243 1 42.551133 5.098487 42.551133 265.405683 -0.000000 0.000000 1.000000 1.000000 1.000000
244 1 33.478952 62.718531 33.478952 62.718531 -0.000000 -0.000000 1.000000 1.000000 1.000000
245 1 150.665918 27.639760 150.665918 27.639760 -0.000000 -0.000000 1.000000 1.000000 1.000000
246 1 49.211172 57.920273 49.211172 57.920273 0.000000 0.000000 1.000000 1.000000 1.000000
247 1 27.914530 34.770675 27.914530 34.770675 0.000000 -0.000000 1.000000 1.000000 1.000000
248 1 236.492759 54.072083 236.492759 54.072083 0.000000 -0.000000 1.000000 1.000000 1.000000
249 1 42.350015 240.771062 42.350015 240.771062 0.000000 0.000000 1.000000 1.000000 1.000000
250 1 31.170553 201.711637 31.170553 201.711637 -0.000000 0.000000 1.000000 1.000000 1.000000
251 1 231.280848 117.274393 231.280848 117.274393 -0.000000 -0.000000 1.000000 1.000000 1.000000
252 1 141.458857 97.183533 141.458857 97.183533 -0.000000 0.000000 1.000000 1.000000 1.000000
253 1 22.032354 140.724271 22.032354 140.724271 0.000000 -0.000000 1.000000 1.000000 1.000000
254 1 242.842024 104.271376 242.842024 104.271376 -0.000000 -0.000000 1.000000 1.000000 1.000000
255 1 233.428533 189.122484 233.428533 189.122484 0.000000 0.000000 1.000000 1.000000 1.000000
256 1 127.420822 24.792304 127.420822 24.792304 -0.000000 -0.000000 1.000000 1.000000 1.000000
257 1 45.866919 57.172861 45.866919 57.172861 0.000000 0.000000 1.000000 1.000000 1.000000
258 1 62.874865 196.596533 62.874865 196.596533 0.000000 0.000000 1.000000 1.000000 1.000000
259 1 217.426032 193.284224 217.426032 193.284224 -0.000000 -0.000000 1.000000 1.000000 1.000000
260 1 62.765386 48.358393 62.765386 48.358393 0.000000 0.000000 1.000000 1.000000 1.000000
261 1 76.695175 5.080218 76.695175 265.387414 -0.000000 0.000000 1.000000 1.000000 1.000000
262 1 83.950464 91.960069 83.950464 91.960069 0.000000 0.000000 1.000000 1.000000 1.000000
263 1 6.204652 4.648505 6.204652 264.955701 0.000000 -0.000000 1.000000 1.000000 1.000000
264 1 77.625187 39.694071 77.625187 39.694071 -0.000000 0.000000 1.000000 1.000000 1.000000
265 1 22.576403 236.041857 22.576403 236.041857 0.000000 -0.000000 1.000000 1.000000 1.000000
266 1 50.329071 10.077491 50.329071 10.077491 0.000000 -0.000000 1.000000 1.000000 1.000000
267 1 76.970993 35.350067 76.970993 35.350067 0.000000 0.000000 1.000000 1.000000 1.000000
268 1 91.087948 220.519469 91.087948 220.519469 -0.000000 -0.000000 1.000000 1.000000 1.000000
269 1 20.936792 225.816120 20.936792 225.816120 -0.000000 -0.000000 1.000000 1.000000 1.000000
270 1 78.790242 107.067797 78.790242 107.067797 -0.000000 0.000000 1.000000 1.000000 1.000000
271 1 15.008685 202.898687 15.008685 202.898687 -0.000000 0.000000 1.000000 1.000000 1.000000
272 1 121.314875 10.861259 121.314875 10.861259 0.000000 -0.000000 1.000000 1.000000 1.000000
273 1 35.653714 168.101905 35.653714 168.101905 0.000000 0.000000 1.000000 1.000000 1.000000
274 1 106.968353 64.155508 106.968353 64.155508 -0.000000 -0.000000 1.000000 1.000000 1.000000
275 1 173.006660 51.441212 173.006660 51.441212 0.000000 0.000000 1.000000 1.000000 1.000000
276 1 256.715515 206.506180 -3.591681 206.506180 -0.000000 -0.000000 1.000000 1.000000 1.000000
277 1 12.626074 209.158596 272.933270 209.158596 0.000000 0.000000 1.000000 1.000000 1.000000
278 1 64.468974 172.026128 64.468974 172.026128 -0.000000 0.000000 1.000000 1.000000 1.000000
279 1 59.745314 139.080230 59.745314 139.080230 -0.000000 0.000000 1.000000 1.000000 1.000000
280 1 154.560278 88.266488 154.560278 88.266488 -0.000000 -0.000000 1.000000 1.000000 1.000000
281 1 33.412936 71.246940 33.412936 71.246940 -0.000000 0.000000 1.000000 1.000000 1.000000
282 1 9.035059 80.989288 9.035059 80.989288 0.000000 -0.000000 1.000000 1.000000 1.000000
283 1 202.320469 255.221448 202.320469 255.221448 0.000000 -0.000000 1.000000 1.000000 1.000000
284 1 258.491973 10.954656 258.491973 271.261852 0.000000 0.000000 1.000000 1.000000 1.000000
285 1 98.964427 184.122091 98.964427 184.122091 -0.000000 0.000000 1.000000 1.000000 1.000000
286 1 164.543378 2.192252 164.543378 2.192252 -0.000000 0.000000 1.000000 1.000000 1.000000
287 1 128.609248 183.773658 128.609248 183.773658 -0.000000 -0.000000 1.000000 1.000000 1.000000
288 1 235.654212 247.032363 235.654212 247.032363 -0.000000 0.000000 1.000000 1.000000 1.000000
289 1 241.274522 42.411891 241.274522 42.411891 -0.000000 -0.000000 1.000000 1.000000 1.000000
290 1 47.886825 141.280779 47.886825 141.280779 0.000000 -0.000000 1.000000 1.000000 1.000000
291 1 225.603036 1.115200 225.603036 261.422396 0.000000 -0.000000 1.000000 1.000000 1.000000
292 1 5.379713 61.063890 265.686909 61.063890 -0.000000 -0.000000 1.000000 1.000000 1.000000
293 1 30.665321 179.968690 30.665321 179.968690 0.000000 0.000000 1.000000 1.000000 1.000000
294 1 134.534650 11.916914 134.534650 11.916914 0.000000 -0.000000 1.000000 1.000000 1.000000
295 1 222.101153 195.034919 222.101153 195.034919 -0.000000 -0.000000 1.000000 1.000000 1.000000
296 1 131.692941 87.534241 131.692941 87.534241 0.000000 -0.000000 1.000000 1.000000 1.000000
297 1 63.911973 83.246160 63.911973 83.246160 0.000000 0.000000 1.000000 1.000000 1.000000
298 1 68.495694 158.745011 68.495694 158.745011 -0.000000 -0.000000 1.000000 1.000000 1.000000
299 1 243.349118 77.991261 243.349118 77.991261 -0.000000 0.000000 1.000000 1.000000 1.000000
300 1 215.419139 55.639727 215.419139 55.639727 0.000000 0.000000 1.000000 1.000000 1.000000
301 1 117.728702 58.784254 117.728702 58.784254 0.000000 0.000000 1.000000 1.000000 1.000000
302 1 79.019618 88.727276 79.019618 88.727276 -0.000000 -0.000000 1.000000 1.000000 1.000000
303 1 238.081194 112.531596 238.081194 112.531596 -0.000000 -0.000000 1.000000 1.000000 1.000000
304 1 23.958453 155.003940 23.958453 155.003940 0.000000 0.000000 1.000000 1.000000 1.000000
305 1 196.390024 124.530001 196.390024 124.530001 0.000000 0.000000 1.000000 1.000000 1.000000
306 1 203.739089 59.312227 203.739089 59.312227 0.000000 0.000000 1.000000 1.000000 1.000000
307 1 71.966137 228.950893 71.966137 228.950893 0.000000 0.000000 1.000000 1.000000 1.000000
308 1 96.918202 228.175544 96.918202 228.175544 -0.000000 0.000000 1.000000 1.000000 1.000000
309 1 6.231444 198.490724 6.231444 198.490724 -0.000000 0.000000 1.000000 1.000000 1.000000
310 1 97.841272 98.188403 97.841272 98.188403 0.000000 -0.000000 1.000000 1.000000 1.000000
311 1 12.769142 79.052619 273.076338 79.052619 -0.000000 -0.000000 1.000000 1.000000 1.000000
312 1 182.727734 161.857346 182.727734 161.857346 -0.000000 -0.000000 1.000000 1.000000 1.000000
313 1 57.820118 211.386848 57.820118 211.386848 0.000000 0.000000 1.000000 1.000000 1.000000
314 1 99.096326 176.491034 99.096326 176.491034 0.000000 -0.000000 1.000000 1.000000 1.000000
315 1 3.885607 198.059618 3.885607 198.059618 -0.000000 -0.000000 1.000000 1.000000 1.000000
316 1 27.155792 27.868114 27.155792 27.868114 -0.000000 -0.000000 1.000000 1.000000 1.000000