ITEM: TIMESTEP
8100.000000
ITEM: NUMBER OF ATOMS
5000
ITEM: BOX BOUNDS xy xz yz
0 214.654818 0
0 214.654818 0
0 2 0
ITEM: ATOMS id type x y xu yu vx vy radius m z
0 1 10.259808 199.913726 224.914626 199.913726 0.000000 -0.000000 1.000000 1.000000 1.000000
1 1 22.438015 136.105371 22.438015 136.105371 -0.000000 0.000000 1.000000 1.000000 1.000000
2 1 85.484387 196.634763 85.484387 196.634763 0.000000 -0.000000 1.000000 1.000000 1.000000
3 1 100.928279 76.534519 100.928279 76.534519 0.000000 0.000000 1.000000 1.000000 1.000000
4 1 17.465161 70.170431 17.465161 70.170431 -0.000000 0.000000 1.000000 1.000000 1.000000
5 1 138.128618 159.313247 138.128618 159.313247 -0.000000 0.000000 1.000000 1.000000 1.000000
6 1 92.459561 160.486864 92.459561 160.486864 -0.000000 -0.000000 1.000000 1.000000 1.000000
7 1 205.175131 147.552215 205.175131 147.552215 -0.000000 -0.000000 1.000000 1.000000 1.000000
8 1 159.320675 191.049749 159.320675 191.049749 -0.000000 -0.000000 1.000000 1.000000 1.000000
9 1 106.389410 24.471093 106.389410 24.471093 -0.000000 0.000000 1.000000 1.000000 1.000000
10 1 129.814074 122.449306 129.814074 122.449306 -0.000000 0.000000 1.000000 1.000000 1.000000
11 1 182.633291 168.624976 182.633291 168.624976 -0.000000 -0.000000 1.000000 1.000000 1.000000
12 1 63.533091 95.080883 63.533091 95.080883 -0.000000 -0.000000 1.000000 1.000000 1.000000
13 1 128.554807 18.668109 128.554807 18.668109 -0.000000 0.000000 1.000000 1.000000 1.000000
14 1 84.018297 55.385753 84.018297 55.385753 -0.000000 -0.000000 1.000000 1.000000 1.000000
15 1 26.481883 21.464525 26.481883 21.464525 0.000000 0.000000 1.000000 1.000000 1.000000
16 1 62.326552 78.689708 62.326552 78.689708 0.000000 0.000000 1.000000 1.000000 1.000000
17 1 89.951566 132.340841 89.951566 132.340841 -0.000000 0.000000 1.000000 1.000000 1.000000
18 1 119.396028 5.321116 119.396028 219.975934 0.000000 0.000000 1.000000 1.000000 1.000000
19 1 39.734748 20.747762 254.389566 20.747762 -0.000000 -0.000000 1.000000 1.000000 1.000000
20 1 60.131229 145.946652 60.131229 145.946652 -0.000000 -0.000000 1.000000 1.000000 1.000000
21 1 50.679177 35.645410 50.679177 35.645410 -0.000000 0.000000 1.000000 1.000000 1.000000
22 1 190.322788 131.477606 190.322788 131.477606 0.000000 0.000000 1.000000 1.000000 1.000000
23 1 69.425138 166.672336 69.425138 166.672336 0.000000 0.000000 1.000000 1.000000 1.000000
24 1 157.975932 176.183216 157.975932 176.183216 -0.000000 -0.000000 1.000000 1.000000 1.000000
25 1 44.087464 85.389733 44.087464 85.389733 0.000000 -0.000000 1.000000 1.000000 1.000000
26 1 56.236015 122.180438 56.236015 122.180438 0.000000 -0.000000 1.000000 1.000000 1.000000
27 1 57.959320 195.912607 57.959320 195.912607 -0.000000 0.000000 1.000000 1.000000 1.000000
28 1 1.126329 93.140520 1.126329 93.140520 0.000000 0.000000 1.000000 1.000000 1.000000
29 1 129.062401 52.654581 129.062401 52.654581 -0.000000 -0.000000 1.000000 1.000000 1.000000
30 1 93.054875 113.274396 93.054875 113.274396 0.000000 0.000000 1.000000 1.000000 1.000000
31 1 64.519205 69.094848 64.519205 69.094848 -0.000000 -0.000000 1.000000 1.000000 1.000000
32 1 26.054319 58.803886 26.054319 58.803886 -0.000000 0.000000 1.000000 1.000000 1.000000
33 1 120.487803 26.741833 120.487803 26.741833 0.000000 -0.000000 1.000000 1.000000 1.000000
34 1 131.228834 213.861948 131.228834 213.861948 -0.000000 0.000000 1.000000 1.000000 1.000000
35 1 35.812248 214.187057 250.467066 -0.467761 0.000000 -0.000000 1.000000 1.000000 1.000000
36 1 2.763213 135.072768 2.763213 135.072768 0.000000 -0.000000 1.000000 1.000000 1.000000
37 1 46.992902 135.359676 46.992902 135.359676 0.000000 -0.000000 1.000000 1.000000 1.000000
38 1 54.007776 19.270903 54.007776 19.270903 0.000000 0.000000 1.000000 1.000000 1.000000
39 1 143.103258 155.873942 143.103258 155.873942 0.000000 -0.000000 1.000000 1.000000 1.000000
40 1 183.095912 180.085947 183.095912 180.085947 -0.000000 0.000000 1.000000 1.000000 1.000000
41 1 5.960846 141.640112 5.960846 141.640112 0.000000 0.000000 1.000000 1.000000 1.000000
42 1 12.566448 26.828551 12.566448 26.828551 -0.000000 -0.000000 1.000000 1.000000 1.000000
43 1 182.715856 154.581525 182.715856 154.581525 0.000000 0.000000 1.000000 1.000000 1.000000
44 1 7.145016 214.376337 7.145016 -0.278481 -0.000000 -0.000000 1.000000 1.000000 1.000000
45 1 30.511308 60.608305 30.511308 60.608305 -0.000000 0.000000 1.000000 1.000000 1.000000
46 1 49.052397 110.996029 49.052397 110.996029 0.000000 -0.000000 1.000000 1.000000 1.000000
47 1 30.066568 161.140464 244.721386 161.140464 0.000000 -0.000000 1.000000 1.000000 1.000000
48 1 75.903629 98.762415 75.903629 98.762415 -0.000000 0.000000 1.000000 1.000000 1.000000
49 1 61.385684 18.835922 61.385684 18.835922 0.000000 -0.000000 1.000000 1.000000 1.000000
50 1 72.143235 32.178623 72.143235 32.178623 -0.000000 -0.000000 1.000000 1.000000 1.000000
51 1 21.457204 123.454221 236.112022 123.454221 0.000000 -0.000000 1.000000 1.000000 1.000000
52 1 44.330760 106.898508 44.330760 106.898508 -0.000000 0.000000 1.000000 1.000000 1.000000
53 1 2.883629 70.611515 217.538447 70.611515 -0.000000 0.000000 1.000000 1.000000 1.000000
54 1 150.862241 170.166213 150.862241 170.166213 -0.000000 -0.000000 1.000000 1.000000 1.000000
55 1 152.051074 172.250759 152.051074 172.250759 -0.000000 -0.000000 1.000000 1.000000 1.000000
56 1 149.685384 134.076000 149.685384 134.076000 0.000000 -0.000000 1.000000 1.000000 1.000000
57 1 19.815011 66.500707 234.469829 66.500707 0.000000 0.000000 1.000000 1.000000 1.000000
58 1 40.082071 124.946392 40.082071 124.946392 -0.000000 0.000000 1.000000 1.000000 1.000000
59 1 22.479350 141.446155 22.479350 141.446155 0.000000 0.000000 1.000000 1.000000 1.000000
60 1 134.867825 134.006049 134.867825 134.006049 0.000000 -0.000000 1.000000 1.000000 1.000000
61 1 83.136800 114.874173 83.136800 114.874173 0.000000 0.000000 1.000000 1.000000 1.000000
62 1 27.734869 11.871898 27.734869 11.871898 -0.000000 -0.000000 1.000000 1.000000 1.000000
63 1 173.175892 131.012307 173.175892 131.012307 -0.000000 0.000000 1.000000 1.000000 1.000000
64 1 154.301169 95.044295 154.301169 95.044295 -0.000000 0.000000 1.000000 1.000000 1.000000
65 1 143.336710 126.779208 143.336710 126.779208 -0.000000 -0.000000 1.000000 1.000000 1.000000
66 1 181.795656 7.508471 181.795656 222.163289 -0.000000 -0.000000 1.000000 1.000000 1.000000
67 1 161.268637 17.995089 161.268637 17.995089 -0.000000 0.000000 1.000000 1.000000 1.000000
68 1 29.716010 93.260568 29.716010 93.260568 0.000000 -0.000000 1.000000 1.000000 1.000000
69 1 169.789355 33.012025 169.789355 33.012025 0.000000 -0.000000 1.000000 1.000000 1.000000
70 1 102.720536 204.873986 102.720536 -9.780832 -0.000000 -0.000000 1.000000 1.000000 1.000000
71 1 85.866909 163.171943 85.866909 163.171943 0.000000 0.000000 1.000000 1.000000 1.000000
72 1 193.476493 94.199276 193.476493 94.199276 -0.000000 0.000000 1.000000 1.000000 1.000000
73 1 137.576938 202.411410 137.576938 202.411410 -0.000000 -0.000000 1.000000 1.000000 1.000000
74 1 45.347715 190.478099 45.347715 190.478099 0.000000 0.000000 1.000000 1.000000 1.000000
75 1 81.115242 159.048473 81.115242 159.048473 -0.000000 -0.000000 1.000000 1.000000 1.000000
76 1 114.907485 46.307912 114.907485 46.307912 -0.000000 0.000000 1.000000 1.000000 1.000000
77 1 4.572282 52.815764 4.572282 52.815764 0.000000 0.000000 1.000000 1.000000 1.000000
78 1 89.944149 72.872960 89.944149 72.872960 0.000000 0.000000 1.000000 1.000000 1.000000
79 1 153.515209 140.570825 153.515209 140.570825 0.000000 -0.000000 1.000000 1.000000 1.000000
80 1 10.943376 131.650335 10.943376 131.650335 0.000000 -0.000000 1.000000 1.000000 1.000000
81 1 141.617965 206.837973 141.617965 206.837973 -0.000000 -0.000000 1.000000 1.000000 1.000000
82 1 187.457525 26.123480 187.457525 26.123480 -0.000000 0.000000 1.000000 1.000000 1.000000
83 1 89.769531 102.070654 89.769531 102.070654 0.000000 -0.000000 1.000000 1.000000 1.000000
84 1 184.246498 198.893442 184.246498 198.893442 0.000000 0.000000 1.000000 1.000000 1.000000
85 1 18.753686 209.270792 18.753686 -5.384026 -0.000000 -0.000000 1.000000 1.000000 1.000000
86 1 47.749845 69.789802 47.749845 69.789802 -0.000000 0.000000 1.000000 1.000000 1.000000
87 1 95.659917 177.139990 95.659917 177.139990 -0.000000 -0.000000 1.000000 1.000000 1.000000
88 1 179.523791 54.722625 179.523791 54.722625 -0.000000 0.000000 1.000000 1.000000 1.000000
89 1 75.531434 63.029520 75.531434 63.029520 0.000000 0.000000 1.000000 1.000000 1.000000
90 1 11.507636 160.567156 11.507636 160.567156 0.000000 -0.000000 1.000000 1.000000 1.000000
91 1 109.683745 212.544558 109.683745 -2.110260 0.000000 -0.000000 1.000000 1.000000 1.000000
92 1 40.335354 114.255813 40.335354 114.255813 0.000000 -0.000000 1.000000 1.000000 1.000000
93 1 91.642400 154.241569 91.642400 154.241569 -0.000000 -0.000000 1.000000 1.000000 1.000000
94 1 146.314964 93.654269 146.314964 93.654269 -0.000000 0.000000 1.000000 1.000000 1.000000
95 1 169.487158 171.983314 169.487158 171.983314 0.000000 -0.000000 1.000000 1.000000 1.000000
96 1 8.489399 198.817814 223.144217 198.817814 -0.000000 -0.000000 1.000000 1.000000 1.000000
97 1 30.430489 164.952222 30.430489 164.952222 0.000000 0.000000 1.000000 1.000000 1.000000
98 1 108.680009 45.474899 108.680009 45.474899 -0.000000 0.000000 1.000000 1.000000 1.000000
99 1 167.831982 56.134501 167.831982 56.134501 0.000000 0.000000 1.000000 1.000000 1.000000
100 1 116.394255 202.755717 116.394255 -11.899101 -0.000000 0.000000 1.000000 1.000000 1.000000
101 1 134.139748 161.512635 134.139748 161.512635 -0.000000 -0.000000 1.000000 1.000000 1.000000
102 1 104.702233 84.715559 104.702233 84.715559 -0.000000 0.000000 1.000000 1.000000 1.000000
103 1 189.349161 110.256273 189.349161 110.256273 0.000000 0.000000 1.000000 1.000000 1.000000
104 1 73.030012 36.600274 73.030012 36.600274 -0.000000 -0.000000 1.000000 1.000000 1.000000
105 1 208.079876 1.037004 -6.574942 215.691822 0.000000 0.000000 1.000000 1.000000 1.000000
106 1 160.169721 105.114473 160.169721 105.114473 0.000000 0.000000 1.000000 1.000000 1.000000
107 1 164.780242 3.865959 164.780242 3.865959 -0.000000 -0.000000 1.000000 1.000000 1.000000
108 1 107.156893 78.267564 107.156893 78.267564 -0.000000 0.000000 1.000000 1.000000 1.000000
109 1 80.787900 201.511260 80.787900 201.511260 -0.000000 0.000000 1.000000 1.000000 1.000000
110 1 190.991340 101.006222 -23.663478 101.006222 0.000000 0.000000 1.000000 1.000000 1.000000
111 1 2.502542 167.323695 2.502542 167.323695 -0.000000 -0.000000 1.000000 1.000000 1.000000
112 1 57.741626 114.887825 57.741626 114.887825 -0.000000 0.000000 1.000000 1.000000 1.000000
113 1 148.442773 169.887376 148.442773 169.887376 0.000000 0.000000 1.000000 1.000000 1.000000
114 1 81.880325 56.502271 81.880325 56.502271 0.000000 -0.000000 1.000000 1.000000 1.000000
115 1 6.329171 116.845739 6.329171 116.845739 -0.000000 0.000000 1.000000 1.000000 1.000000
116 1 146.285408 173.145973 146.285408 173.145973 0.000000 -0.000000 1.000000 1.000000 1.000000
117 1 94.440733 138.325418 94.440733 138.325418 -0.000000 -0.000000 1.000000 1.000000 1.000000
118 1 83.123689 213.990603 83.123689 213.990603 -0.000000 0.000000 1.000000 1.000000 1.000000
119 1 199.292426 213.577790 -15.362392 213.577790 0.000000 -0.000000 1.000000 1.000000 1.000000
120 1 186.577697 181.765524 186.577697 181.765524 0.000000 -0.000000 1.000000 1.000000 1.000000
121 1 4.448239 16.580789 4.448239 231.235607 -0.000000 -0.000000 1.000000 1.000000 1.000000
122 1 0.471225 122.251524 215.126043 122.251524 0.000000 -0.000000 1.000000 1.000000 1.000000
123 1 73.745589 12.957866 73.745589 12.957866 -0.000000 -0.000000 1.000000 1.000000 1.000000
124 1 180.147409 97.302204 180.147409 97.302204 -0.000000 0.000000 1.000000 1.000000 1.000000
125 1 209.708126 60.574366 -4.946692 60.574366 0.000000 0.000000 1.000000 1.000000 1.000000
126 1 166.858701 100.696771 166.858701 100.696771 -0.000000 0.000000 1.000000 1.000000 1.000000
127 1 142.881170 185.988448 142.881170 185.988448 0.000000 -0.000000 1.000000 1.000000 1.000000
128 1 13.948706 161.027452 13.948706 161.027452 0.000000 0.000000 1.000000 1.000000 1.000000
129 1 162.162917 103.673905 162.162917 103.673905 0.000000 -0.000000 1.000000 1.000000 1.000000
130 1 34.969226 151.827025 34.969226 151.827025 -0.000000 -0.000000 1.000000 1.000000 1.000000
131 1 30.845206 65.447354 30.845206 65.447354 0.000000 0.000000 1.000000 1.000000 1.000000
132 1 209.027032 54.671707 -5.627786 54.671707 -0.000000 -0.000000 1.000000 1.000000 1.000000
133 1 130.231530 39.010810 130.231530 39.010810 -0.000000 0.000000 1.000000 1.000000 1.000000
134 1 82.945637 208.858367 82.945637 208.858367 -0.000000 0.000000 1.000000 1.000000 1.000000
135 1 3.528987 174.372020 3.528987 174.372020 -0.000000 0.000000 1.000000 1.000000 1.000000
136 1 188.946276 200.717371 188.946276 200.717371 0.000000 -0.000000 1.000000 1.000000 1.000000
137 1 127.792312 13.498975 127.792312 228.153793 0.000000 0.000000 1.000000 1.000000 1.000000
138 1 204.338613 170.926842 -10.316205 170.926842 0.000000 0.000000 1.000000 1.000000 1.000000
139 1 16.374106 15.621417 16.374106 15.621417 -0.000000 -0.000000 1.000000 1.000000 1.000000
140 1 184.206360 166.870507 184.206360 166.870507 -0.000000 -0.000000 1.000000 1.000000 1.000000
141 1 24.650508 133.931682 24.650508 133.931682 -0.000000 -0.000000 1.000000 1.000000 1.000000
142 1 145.708452 45.753914 145.708452 45.753914 -0.000000 -0.000000 1.000000 1.000000 1.000000
143 1 122.724799 8.479119 122.724799 8.479119 0.000000 0.000000 1.000000 1.000000 1.000000
144 1 78.980420 95.653330 78.980420 95.653330 0.000000 -0.000000 1.000000 1.000000 1.000000
145 1 31.913691 23.865428 31.913691 23.865428 -0.000000 -0.000000 1.000000 1.000000 1.000000
146 1 73.994379 191.655991 73.994379 191.655991 0.000000 0.000000 1.000000 1.000000 1.000000
147 1 80.053011 67.059191 80.053011 67.059191 0.000000 0.000000 1.000000 1.000000 1.000000
148 1 10.593448 19.228444 10.593448 19.228444 0.000000 0.000000 1.000000 1.000000 1.000000
149 1 134.557655 145.270152 134.557655 145.270152 -0.000000 0.000000 1.000000 1.000000 1.000000
150 1 38.741402 56.076643 38.741402 56.076643 0.000000 0.000000 1.000000 1.000000 1.000000
151 1 7.443719 110.733358 7.443719 110.733358 0.000000 0.000000 1.000000 1.000000 1.000000
152 1 56.170193 145.142182 56.170193 145.142182 -0.000000 -0.000000 1.000000 1.000000 1.000000
153 1 70.661125 200.977074 70.661125 -13.677744 0.000000 0.000000 1.000000 1.000000 1.000000
154 1 154.594732 201.997960 154.594732 -12.656858 -0.000000 -0.000000 1.000000 1.000000 1.000000
155 1 121.875052 169.837482 121.875052 169.837482 -0.000000 -0.000000 1.000000 1.000000 1.000000
156 1 10.392635 38.964701 225.047453 38.964701 0.000000 0.000000 1.000000 1.000000 1.000000
157 1 180.299622 59.605694 180.299622 59.605694 0.000000 -0.000000 1.000000 1.000000 1.000000
158 1 25.525123 34.100081 25.525123 34.100081 -0.000000 0.000000 1.000000 1.000000 1.000000
159 1 52.839714 138.852385 52.839714 138.852385 0.000000 -0.000000 1.000000 1.000000 1.000000
160 1 199.445920 128.588088 199.445920 128.588088 -0.000000 -0.000000 1.000000 1.000000 1.000000
161 1 197.136158 91.060812 197.136158 91.060812 -0.000000 0.000000 1.000000 1.000000 1.000000
162 1 24.568910 2.090093 24.568910 2.090093 -0.000000 0.000000 1.000000 1.000000 1.000000
163 1 79.083244 165.290692 79.083244 165.290692 0.000000 0.000000 1.000000 1.000000 1.000000
164 1 86.800410 184.806147 86.800410 184.806147 -0.000000 -0.000000 1.000000 1.000000 1.000000
165 1 111.356838 194.836897 111.356838 194.836897 -0.000000 0.000000 1.000000 1.000000 1.000000
166 1 112.806633 23.927788 112.806633 23.927788 0.000000 -0.000000 1.000000 1.000000 1.000000
167 1 52.985444 45.474364 52.985444 45.474364 -0.000000 -0.000000 1.000000 1.000000 1.000000
168 1 16.278622 114.033748 230.933440 114.033748 0.000000 -0.000000 1.000000 1.000000 1.000000
169 1 198.151683 155.391855 198.151683 155.391855 -0.000000 -0.000000 1.000000 1.000000 1.000000
170 1 125.147783 37.097021 125.147783 37.097021 -0.000000 -0.000000 1.000000 1.000000 1.000000
171 1 63.288658 73.701409 63.288658 73.701409 -0.000000 0.000000 1.000000 1.000000 1.000000
172 1 100.491371 153.852669 100.491371 153.852669 0.000000 -0.000000 1.000000 1.000000 1.000000
173 1 92.905051 189.340612 92.905051 189.340612 0.000000 -0.000000 1.000000 1.000000 1.000000
174 1 29.717567 195.809767 29.717567 195.809767 -0.000000 -0.000000 1.000000 1.000000 1.000000
175 1 49.535284 28.221404 49.535284 28.221404 0.000000 0.000000 1.000000 1.000000 1.000000
176 1 147.667195 140.400167 147.667195 140.400167 0.000000 -0.000000 1.000000 1.000000 1.000000
177 1 134.552706 111.843083 134.552706 111.843083 -0.000000 0.000000 1.000000 1.000000 1.000000
178 1 91.745451 115.982133 91.745451 115.982133 -0.000000 -0.000000 1.000000 1.000000 1.000000
179 1 6.589437 32.558914 6.589437 32.558914 0.000000 -0.000000 1.000000 1.000000 1.000000
180 1 22.990441 61.679126 22.990441 61.679126 0.000000 -0.000000 1.000000 1.000000 1.000000
181 1 52.537852 169.582039 52.537852 169.582039 -0.000000 -0.000000 1.000000 1.000000 1.000000
182 1 54.320594 207.818824 54.320594 207.818824 -0.000000 -0.000000 1.000000 1.000000 1.000000
183 1 180.185281 159.676180 180.185281 159.676180 0.000000 0.000000 1.000000 1.000000 1.000000
184 1 129.850336 95.373457 129.850336 95.373457 -0.000000 -0.000000 1.000000 1.000000 1.000000
185 1 102.757933 157.979298 102.757933 157.979298 -0.000000 0.000000 1.000000 1.000000 1.000000
186 1 67.312292 104.620513 67.312292 104.620513 -0.000000 0.000000 1.000000 1.000000 1.000000
187 1 150.691039 164.338964 150.691039 164.338964 -0.000000 0.000000 1.000000 1.000000 1.000000
188 1 165.621927 54.926549 165.621927 54.926549 -0.000000 0.000000 1.000000 1.000000 1.000000
189 1 78.584773 90.719314 78.584773 90.719314 0.000000 0.000000 1.000000 1.000000 1.000000
190 1 54.245844 108.815985 54.245844 108.815985 -0.000000 0.000000 1.000000 1.000000 1.000000
191 1 161.104655 79.265245 161.104655 79.265245 -0.000000 -0.000000 1.000000 1.000000 1.000000
192 1 184.963087 114.072265 184.963087 114.072265 -0.000000 -0.000000 1.000000 1.000000 1.000000
193 1 103.155087 42.346401 103.155087 257.001219 -0.000000 -0.000000 1.000000 1.000000 1.000000
194 1 167.625463 202.781486 167.625463 -11.873332 0.000000 0.000000 1.000000 1.000000 1.000000
195 1 97.373984 56.732706 97.373984 56.732706 0.000000 0.000000 1.000000 1.000000 1.000000
196 1 4.432606 207.963914 219.087424 207.963914 -0.000000 0.000000 1.000000 1.000000 1.000000
197 1 21.774781 214.593812 21.774781 214.593812 0.000000 0.000000 1.000000 1.000000 1.000000
198 1 200.553752 11.051875 -14.101066 11.051875 -0.000000 0.000000 1.000000 1.000000 1.000000
199 1 29.182654 4.342431 29.182654 218.997249 0.000000 -0.000000 1.000000 1.000000 1.000000
200 1 171.016695 64.043042 171.016695 64.043042 0.000000 -0.000000 1.000000 1.000000 1.000000
201 1 127.074736 61.561114 127.074736 61.561114 -0.000000 -0.000000 1.000000 1.000000 1.000000
202 1 178.559821 175.778723 178.559821 175.778723 -0.000000 0.000000 1.000000 1.000000 1.000000
203 1 47.702774 1.263306 47.702774 1.263306 0.000000 -0.000000 1.000000 1.000000 1.000000
204 1 32.906758 156.512654 32.906758 156.512654 0.000000 0.000000 1.000000 1.000000 1.000000
205 1 136.376286 196.631295 136.376286 196.631295 0.000000 0.000000 1.000000 1.000000 1.000000
206 1 197.898208 183.008167 197.898208 183.008167 -0.000000 -0.000000 1.000000 1.000000 1.000000
207 1 182.061495 123.518343 182.061495 123.518343 0.000000 0.000000 1.000000 1.000000 1.000000
208 1 158.936322 36.586427 158.936322 36.586427 -0.000000 -0.000000 1.000000 1.000000 1.000000
209 1 119.328125 181.638325 119.328125 181.638325 -0.000000 -0.000000 1.000000 1.000000 1.000000
210 1 151.199976 211.088027 151.199976 211.088027 -0.000000 -0.000000 1.000000 1.000000 1.000000
211 1 85.215740 198.738145 85.215740 198.738145 0.000000 0.000000 1.000000 1.000000 1.000000
212 1 94.313010 174.411757 94.313010 174.411757 0.000000 -0.000000 1.000000 1.000000 1.000000
213 1 59.802591 56.170000 59.802591 56.170000 0.000000 0.000000 1.000000 1.000000 1.000000
214 1 82.157157 20.517836 82.157157 20.517836 0.000000 -0.000000 1.000000 1.000000 1.000000
215 1 108.316008 126.216888 108.316008 126.216888 0.000000 -0.000000 1.000000 1.000000 1.000000
216 1 198.606340 170.881247 198.606340 170.881247 0.000000 0.000000 1.000000 1.000000 1.000000
217 1 113.909593 17.381339 113.909593 17.381339 -0.000000 -0.000000 1.000000 1.000000 1.000000
218 1 188.258384 10.854282 -26.396434 225.509100 0.000000 -0.000000 1.000000 1.000000 1.000000
219 1 93.501573 59.965732 93.501573 59.965732 0.000000 0.000000 1.000000 1.000000 1.000000
220 1 165.215954 120.938915 165.215954 120.938915 0.000000 -0.000000 1.000000 1.000000 1.000000
221 1 141.680114 69.933153 141.680114 69.933153 -0.000000 0.000000 1.000000 1.000000 1.000000
222 1 194.219277 139.331763 194.219277 139.331763 0.000000 -0.000000 1.000000 1.000000 1.000000
223 1 117.225505 12.872573 117.225505 12.872573 0.000000 0.000000 1.000000 1.000000 1.000000
224 1 23.686355 212.787029 23.686355 212.787029 -0.000000 -0.000000 1.000000 1.000000 1.000000
225 1 122.268178 128.350032 122.268178 128.350032 0.000000 0.000000 1.000000 1.000000 1.000000
226 1 46.044596 197.953357 46.044596 197.953357 0.000000 -0.000000 1.000000 1.000000 1.000000
227 1 170.640874 110.049086 170.640874 110.049086 0.000000 -0.000000 1.000000 1.000000 1.000000
228 1 112.680438 176.955479 112.680438 176.955479 0.000000 0.000000 1.000000 1.000000 1.000000
229 1 73.964293 150.393068 73.964293 150.393068 0.000000 0.000000 1.000000 1.000000 1.000000
230 1 5.743060 121.618706 5.743060 121.618706 -0.000000 0.000000 1.000000 1.000000 1.000000
231 1 69.248631 194.464948 69.248631 194.464948 -0.000000 -0.000000 1.000000 1.000000 1.000000
232 1 172.737460 96.633686 172.737460 96.633686 0.000000 -0.000000 1.000000 1.000000 1.000000
233 1 177.072923 168.234184 177.072923 168.234184 0.000000 0.000000 1.000000 1.000000 1.000000
234 1 45.214778 90.483307 45.214778 90.483307 0.000000 -0.000000 1.000000 1.000000 1.000000
235 1 43.481174 134.232434 43.481174 134.232434 -0.000000 -0.000000 1.000000 1.000000 1.000000
236 1 171.545637 45.447694 171.545637 45.447694 0.000000 0.000000 1.000000 1.000000 1.000000
237 1 192.570581 180.051248 192.570581 180.051248 -0.000000 0.000000 1.000000 1.000000 1.000000
238 1 10.028967 22.467727 224.683785 22.467727 -0.000000 0.000000 1.000000 1.000000 1.000000
239 1 2.451246 146.823506 2.451246 146.823506 -0.000000 0.000000 1.000000 1.000000 1.000000
240 1 69.679793 134.343985 69.679793 134.343985 -0.000000 -0.000000 1.000000 1.000000 1.000000
241 1 187.439182 42.823741 187.439182 42.823741 -0.000000 -0.000000 1.000000 1.000000 1.000000
242 1 40.515847 69.169474 40.515847 69.169474 0.000000 -0.000000 1.000000 1.000000 1.000000
243 1 63.864722 122.215883 63.864722 122.215883 -0.000000 -0.000000 1.000000 1.000000 1.000000
244 1 196.901054 65.647212 196.901054 65.647212 0.000000 0.000000 1.000000 1.000000 1.000000
245 1 150.864729 20.396228 150.864729 20.396228 -0.000000 -0.000000 1.000000 1.000000 1.000000
246 1 73.807288 22.036587 73.807288 22.036587 0.000000 0.000000 1.000000 1.000000 1.000000
247 1 53.798503 129.086018 53.798503 129.086018 0.000000 0.000000 1.000000 1.000000 1.000000
248 1 107.209567 132.450233 107.209567 132.450233 -0.000000 0.000000 1.000000 1.000000 1.000000
249 1 26.122818 109.070407 26.122818 109.070407 0.000000 -0.000000 1.000000 1.000000 1.000000
250 1 165.766707 182.488031 165.766707 182.488031 -0.000000 -0.000000 1.000000 1.000000 1.000000
251 1 77.580710 74.145922 77.580710 74.145922 0.000000 -0.000000 1.000000 1.000000 1.000000
252 1 39.423281 23.209992 254.078099 23.209992 -0.000000 0.000000 1.000000 1.000000 1.000000
253 1 53.446552 0.105124 53.446552 214.759942 -0.000000 0.000000 1.000000 1.000000 1.000000
254 1 183.934777 106.187334 183.934777 106.187334 -0.000000 -0.000000 1.000000 1.000000 1.000000
255 1 183.622605 70.319202 -31.032213 70.319202 -0.000000 0.000000 1.000000 1.000000 1.000000
256 1 98.203643 80.688091 98.203643 80.688091 -0.000000 0.000000 1.000000 1.000000 1.000000
257 1 111.024849 180.913129 111.024849 180.913129 -0.000000 -0.000000 1.000000 1.000000 1.000000
258 1 201.738864 194.769280 201.738864 -19.885538 0.000000 0.000000 1.000000 1.000000 1.000000
259 1 54.024648 212.081424 54.024648 212.081424 0.000000 0.000000 1.000000 1.000000 1.000000
260 1 99.396097 48.815113 99.396097 48.815113 0.000000 0.000000 1.000000 1.000000 1.000000
261 1 147.185226 144.663356 147.185226 144.663356 -0.000000 -0.000000 1.000000 1.000000 1.000000
262 1 111.743682 160.524388 111.743682 160.524388 -0.000000 0.000000 1.000000 1.000000 1.000000
263 1 9.935880 148.495986 224.590698 148.495986 0.000000 -0.000000 1.000000 1.000000 1.000000
264 1 137.915638 168.083970 137.915638 168.083970 -0.000000 -0.000000 1.000000 1.000000 1.000000
265 1 180.945812 114.140333 180.945812 114.140333 0.000000 -0.000000 1.000000 1.000000 1.000000
266 1 29.718936 63.619529 29.718936 63.619529 -0.000000 0.000000 1.000000 1.000000 1.000000
267 1 113.994924 91.140747 113.994924 91.140747 -0.000000 0.000000 1.000000 1.000000 1.000000
268 1 177.817213 13.459234 177.817213 13.459234 0.000000 -0.000000 1.000000 1.000000 1.000000
269 1 192.697704 48.202512 192.697704 48.202512 -0.000000 0.000000 1.000000 1.000000 1.000000
270 1 192.876889 190.947465 192.876889 190.947465 0.000000 0.000000 1.000000 1.000000 1.000000
271 1 49.273513 186.401615 49.273513 186.401615 0.000000 -0.000000 1.000000 1.000000 1.000000
272 1 50.565564 141.391433 50.565564 141.391433 -0.000000 -0.000000 1.000000 1.000000 1.000000
273 1 92.621492 4.896357 92.621492 4.896357 0.000000 0.000000 1.000000 1.000000 1.000000
274 1 0.755152 161.777221 0.755152 161.777221 -0.000000 -0.000000 1.000000 1.000000 1.000000
275 1 172.652078 87.539959 172.652078 87.539959 0.000000 -0.000000 1.000000 1.000000 1.000000
276 1 65.660899 36.054541 65.660899 36.054541 0.000000 -0.000000 1.000000 1.000000 1.000000
277 1 121.460400 104.902844 121.460400 104.902844 0.000000 0.000000 1.000000 1.000000 1.000000
278 1 63.191402 98.942939 63.191402 98.942939 0.000000 -0.000000 1.000000 1.000000 1.000000
279 1 172.426698 37.567562 172.426698 37.567562 -0.000000 -0.000000 1.000000 1.000000 1.000000
280 1 150.160185 187.438956 150.160185 187.438956 -0.000000 0.000000 1.000000 1.000000 1.000000
281 1 163.515440 94.838518 163.515440 94.838518 -0.000000 -0.000000 1.000000 1.000000 1.000000
282 1 148.252836 167.714451 148.252836 167.714451 0.000000 0.000000 1.000000 1.000000 1.000000
283 1 90.164247 139.250101 90.164247 139.250101 0.000000 -0.000000 1.000000 1.000000 1.000000
284 1 81.682800 189.907972 81.682800 189.907972 0.000000 0.000000 1.000000 1.000000 1.000000
285 1 27.819390 128.814369 27.819390 128.814369 -0.000000 -0.000000 1.000000 1.000000 1.000000
286 1 165.757187 23.897684 165.757187 23.897684 0.000001 0.000000 1.000000 1.000000 1.000000
287 1 18.870957 166.419689 18.870957 166.419689 -0.000000 0.000000 1.000000 1.000000 1.000000
288 1 197.249055 212.207780 197.249055 -2.447038 -0.000000 -0.000000 1.000000 1.000000 1.000000
289 1 146.408842 177.521350 146.408842 177.521350 -0.000000 0.000000 1.000000 1.000000 1.000000
290 1 50.194259 138.732619 50.194259 138.732619 0.000000 -0.000000 1.000000 1.000000 1.000000
291 1 10.560822 6.997417 10.560822 6.997417 -0.000000 -0.000000 1.000000 1.000000 1.000000
292 1 196.746822 13.934113 -17.907996 13.934113 -0.000000 -0.000000 1.000000 1.000000 1.000000
293 1 150.722877 69.231885 150.722877 69.231885 -0.000000 0.000000 1.000000 1.000000 1.000000
294 1 169.040569 69.691956 169.040569 69.691956 0.000001 -0.000003 1.000000 1.000000 1.000000
295 1 213.086092 158.572450 213.086092 158.572450 0.000000 0.000000 1.000000 1.000000 1.000000
296 1 206.415615 40.240992 206.415615 40.240992 -0.000000 -0.000000 1.000000 1.000000 1.000000
297 1 50.699496 123.162395 50.699496 123.162395 -0.000000 0.000000 1.000000 1.000000 1.000000
298 1 188.732325 140.974341 188.732325 140.974341 -0.000000 0.000000 1.000000 1.000000 1.000000
299 1 72.568527 136.887499 72.568527 136.887499 -0.000000 0.000000 1.000000 1.000000 1.000000
300 1 157.667542 143.642745 157.667542 143.642745 0.000000 -0.000000 1.000000 1.000000 1.000000
301 1 57.491505 159.988758 57.491505 159.988758 0.000000 -0.000000 1.000000 1.000000 1.000000
302 1 187.607996 83.459055 187.607996 83.459055 0.000000 0.000000 1.000000 1.000000 1.000000
303 1 71.370635 132.607657 71.370635 132.607657 -0.000000 -0.000000 1.000000 1.000000 1.000000
304 1 108.755691 193.751053 108.755691 -20.903765 -0.000000 -0.000000 1.000000 1.000000 1.000000
305 1 39.219538 214.196091 39.219538 214.196091 0.000000 0.000000 1.000000 1.000000 1.000000
306 1 76.626099 32.044993 76.626099 32.044993 0.000000 -0.000000 1.000000 1.000000 1.000000
307 1 111.252572 39.717056 111.252572 39.717056 0.000000 0.000000 1.000000 1.000000 1.000000
308 1 70.063993 176.185199 70.063993 176.185199 0.000000 0.000000 1.000000 1.000000 1.000000
309 1 181.678524 156.973540 181.678524 156.973540 0.000000 -0.000000 1.000000 1.000000 1.000000
310 1 168.703611 101.912299 168.703611 101.912299 0.000000 -0.000000 1.000000 1.000000 1.000000
311 1 80.536420 132.204856 80.536420 132.204856 0.000000 -0.000000 1.000000 1.000000 1.000000
312 1 136.184566 95.502245 136.184566 95.502245 0.000000 0.000000 1.000000 1.000000 1.000000
313 1 36.916301 181.436761 36.916301 181.436761 0.000000 -0.000000 1.000000 1.000000 1.000000
314 1 9.405707 51.424701 9.405707 51.424701 0.000000 0.000000 1.000000 1.000000 1.000000
315 1 152.452322 146.236958 152.452322 146.236958 -0.000000 -0.000000 1.000000 1.000000 1.000000
316 1 85.362152 26.233816 85.362152 26.233816 -0.000000 0.000000 1.000000 1.000000 1.000000
317 1 119.139724 204.711271 119.139724 204.711271 0.000000 0.000000 1.000000 1.000000 1.000000