ITEM: TIMESTEP
1100.000000
ITEM: NUMBER OF ATOMS
5000
ITEM: BOX BOUNDS xy xz yz
0 273.101739 0
0 273.101739 0
0 2 0
ITEM: ATOMS id type x y xu yu vx vy radius m z
0 1 184.112507 233.355359 184.112507 233.355359 0.000000 0.000000 1.000000 1.000000 1.000000
1 1 172.982119 20.703038 172.982119 20.703038 -0.000000 -0.000000 1.000000 1.000000 1.000000
2 1 232.184463 235.132092 232.184463 235.132092 -0.000000 -0.000000 1.000000 1.000000 1.000000
3 1 33.035288 126.495398 33.035288 126.495398 -0.000000 0.000000 1.000000 1.000000 1.000000
4 1 210.889957 259.988537 210.889957 259.988537 -0.000000 -0.000000 1.000000 1.000000 1.000000
5 1 193.994465 82.588072 193.994465 82.588072 -0.000000 0.000000 1.000000 1.000000 1.000000
6 1 24.408143 247.067384 24.408143 247.067384 0.000000 0.000000 1.000000 1.000000 1.000000
7 1 222.658004 91.762225 222.658004 91.762225 -0.000000 0.000000 1.000000 1.000000 1.000000
8 1 22.194095 182.506894 22.194095 182.506894 0.000000 -0.000000 1.000000 1.000000 1.000000
9 1 208.901365 143.058251 208.901365 143.058251 -0.000000 0.000000 1.000000 1.000000 1.000000
10 1 161.136097 6.078907 161.136097 6.078907 0.000000 0.000000 1.000000 1.000000 1.000000
11 1 148.966601 129.993465 148.966601 129.993465 0.000000 -0.000000 1.000000 1.000000 1.000000
12 1 194.675700 66.997067 194.675700 66.997067 -0.000000 0.000000 1.000000 1.000000 1.000000
13 1 84.526538 26.741159 84.526538 26.741159 0.000000 -0.000000 1.000000 1.000000 1.000000
14 1 211.398194 208.676678 211.398194 208.676678 0.000000 0.000000 1.000000 1.000000 1.000000
15 1 47.882393 131.743290 47.882393 131.743290 -0.000000 -0.000000 1.000000 1.000000 1.000000
16 1 17.304107 83.166460 17.304107 83.166460 -0.000000 0.000000 1.000000 1.000000 1.000000
17 1 193.491794 5.333626 193.491794 5.333626 0.000000 -0.000000 1.000000 1.000000 1.000000
18 1 63.539445 170.408054 63.539445 170.408054 0.000000 -0.000000 1.000000 1.000000 1.000000
19 1 65.228988 272.185096 65.228988 272.185096 -0.000000 0.000000 1.000000 1.000000 1.000000
20 1 238.157682 66.520831 238.157682 66.520831 -0.000000 0.000000 1.000000 1.000000 1.000000
21 1 39.724198 178.767323 39.724198 178.767323 -0.000000 -0.000000 1.000000 1.000000 1.000000
22 1 244.520316 174.624110 244.520316 174.624110 0.000000 0.000000 1.000000 1.000000 1.000000
23 1 12.420230 2.471465 12.420230 275.573204 -0.000000 0.000000 1.000000 1.000000 1.000000
24 1 26.769767 135.311234 26.769767 135.311234 0.000000 -0.000000 1.000000 1.000000 1.000000
25 1 104.423976 240.291321 104.423976 240.291321 0.000000 0.000000 1.000000 1.000000 1.000000
26 1 67.789283 169.886450 67.789283 169.886450 -0.000000 0.000000 1.000000 1.000000 1.000000
27 1 82.502671 14.150576 82.502671 14.150576 -0.000000 -0.000000 1.000000 1.000000 1.000000
28 1 9.589060 173.131357 9.589060 173.131357 0.000000 -0.000000 1.000000 1.000000 1.000000
29 1 241.874802 218.498857 241.874802 218.498857 0.000000 -0.000000 1.000000 1.000000 1.000000
30 1 39.994191 264.473809 39.994191 264.473809 0.000000 0.000000 1.000000 1.000000 1.000000
31 1 254.579623 103.826553 254.579623 103.826553 0.000000 -0.000000 1.000000 1.000000 1.000000
32 1 232.250331 220.122522 232.250331 220.122522 -0.000000 -0.000000 1.000000 1.000000 1.000000
33 1 187.467818 91.049800 187.467818 91.049800 0.000000 0.000000 1.000000 1.000000 1.000000
34 1 47.118057 50.214106 47.118057 50.214106 -0.000000 -0.000000 1.000000 1.000000 1.000000
35 1 218.243294 6.975502 218.243294 6.975502 0.000000 0.000000 1.000000 1.000000 1.000000
36 1 41.654025 202.553308 41.654025 202.553308 -0.000000 0.000000 1.000000 1.000000 1.000000
37 1 62.318085 86.392553 62.318085 86.392553 -0.000000 -0.000000 1.000000 1.000000 1.000000
38 1 197.341457 58.353200 197.341457 58.353200 -0.000000 -0.000000 1.000000 1.000000 1.000000
39 1 59.234240 161.934332 59.234240 161.934332 0.000000 -0.000000 1.000000 1.000000 1.000000
40 1 236.612060 9.973164 236.612060 9.973164 -0.000000 -0.000000 1.000000 1.000000 1.000000
41 1 161.175545 78.501285 161.175545 78.501285 -0.000000 0.000000 1.000000 1.000000 1.000000
42 1 7.039023 25.121192 280.140762 25.121192 0.000000 -0.000000 1.000000 1.000000 1.000000
43 1 216.555813 93.049959 216.555813 93.049959 0.000000 -0.000000 1.000000 1.000000 1.000000
44 1 9.632427 178.298968 9.632427 178.298968 0.000000 0.000000 1.000000 1.000000 1.000000
45 1 72.998281 123.275861 72.998281 123.275861 0.000000 0.000000 1.000000 1.000000 1.000000
46 1 136.717782 47.379230 136.717782 47.379230 0.000000 -0.000000 1.000000 1.000000 1.000000
47 1 197.708427 123.913295 197.708427 123.913295 0.000000 0.000000 1.000000 1.000000 1.000000
48 1 51.623357 93.788768 51.623357 93.788768 0.000000 0.000000 1.000000 1.000000 1.000000
49 1 248.014101 202.554766 248.014101 202.554766 -0.000000 0.000000 1.000000 1.000000 1.000000
50 1 12.452144 115.811537 12.452144 115.811537 -0.000000 0.000000 1.000000 1.000000 1.000000
51 1 50.757458 178.742829 50.757458 178.742829 0.000000 0.000000 1.000000 1.000000 1.000000
52 1 34.081403 258.755797 34.081403 258.755797 0.000000 -0.000000 1.000000 1.000000 1.000000
53 1 262.338143 140.561173 262.338143 140.561173 -0.000000 -0.000000 1.000000 1.000000 1.000000
54 1 77.836642 176.462311 77.836642 176.462311 -0.000000 -0.000000 1.000000 1.000000 1.000000
55 1 76.965166 38.137687 76.965166 38.137687 0.000000 0.000000 1.000000 1.000000 1.000000
56 1 68.893838 125.978476 68.893838 125.978476 -0.000000 -0.000000 1.000000 1.000000 1.000000
57 1 50.749715 85.485123 50.749715 85.485123 -0.000000 0.000000 1.000000 1.000000 1.000000
58 1 82.195490 219.007412 82.195490 219.007412 -0.000000 0.000000 1.000000 1.000000 1.000000
59 1 120.734631 153.653188 120.734631 153.653188 0.000000 -0.000000 1.000000 1.000000 1.000000
60 1 200.097891 96.309887 200.097891 96.309887 0.000000 -0.000000 1.000000 1.000000 1.000000
61 1 269.729092 258.629921 269.729092 258.629921 -0.000000 -0.000000 1.000000 1.000000 1.000000
62 1 204.890940 258.079009 204.890940 -15.022730 0.000000 0.000000 1.000000 1.000000 1.000000
63 1 129.766321 179.256616 129.766321 179.256616 -0.000000 -0.000000 1.000000 1.000000 1.000000
64 1 150.210983 200.125438 150.210983 200.125438 0.000000 -0.000000 1.000000 1.000000 1.000000
65 1 28.914533 18.864270 28.914533 18.864270 -0.000000 -0.000000 1.000000 1.000000 1.000000
66 1 241.859636 194.883567 241.859636 194.883567 0.000000 0.000000 1.000000 1.000000 1.000000
67 1 25.177565 141.661484 25.177565 141.661484 -0.000000 0.000000 1.000000 1.000000 1.000000
68 1 64.424490 98.203410 64.424490 98.203410 0.000000 0.000000 1.000000 1.000000 1.000000
69 1 124.281217 28.878791 124.281217 28.878791 -0.000000 0.000000 1.000000 1.000000 1.000000
70 1 266.976165 85.400441 -6.125574 85.400441 -0.000000 -0.000000 1.000000 1.000000 1.000000
71 1 231.940189 179.448620 231.940189 179.448620 0.000000 0.000000 1.000000 1.000000 1.000000
72 1 142.765435 132.356345 142.765435 132.356345 0.000000 0.000000 1.000000 1.000000 1.000000
73 1 110.373410 105.752223 110.373410 105.752223 0.000000 -0.000000 1.000000 1.000000 1.000000
74 1 174.500213 188.243648 174.500213 188.243648 0.000000 0.000000 1.000000 1.000000 1.000000
75 1 205.614197 264.701449 205.614197 264.701449 -0.000000 -0.000000 1.000000 1.000000 1.000000
76 1 13.956164 216.452260 13.956164 216.452260 -0.000000 -0.000000 1.000000 1.000000 1.000000
77 1 18.472000 216.026127 18.472000 216.026127 -0.000000 0.000000 1.000000 1.000000 1.000000
78 1 165.014803 19.236562 165.014803 19.236562 -0.000000 0.000000 1.000000 1.000000 1.000000
79 1 126.582856 78.686863 126.582856 78.686863 0.000000 0.000000 1.000000 1.000000 1.000000
80 1 201.899814 104.476395 201.899814 104.476395 0.000000 0.000000 1.000000 1.000000 1.000000
81 1 186.566032 141.080976 186.566032 141.080976 -0.000000 0.000000 1.000000 1.000000 1.000000
82 1 233.200789 115.044611 233.200789 115.044611 -0.000000 0.000000 1.000000 1.000000 1.000000
83 1 198.841799 260.065678 198.841799 260.065678 0.000000 0.000000 1.000000 1.000000 1.000000
84 1 132.297832 123.596163 132.297832 123.596163 0.000000 -0.000000 1.000000 1.000000 1.000000
85 1 262.647207 91.942561 262.647207 91.942561 -0.000000 -0.000000 1.000000 1.000000 1.000000
86 1 61.282436 62.934311 61.282436 62.934311 -0.000000 0.000000 1.000000 1.000000 1.000000
87 1 112.857772 77.662787 112.857772 77.662787 0.000000 0.000000 1.000000 1.000000 1.000000
88 1 248.051158 114.037999 248.051158 114.037999 0.000000 0.000000 1.000000 1.000000 1.000000
89 1 49.611163 231.675641 49.611163 231.675641 -0.000000 0.000000 1.000000 1.000000 1.000000
90 1 219.430037 194.018540 219.430037 194.018540 0.000000 -0.000000 1.000000 1.000000 1.000000
91 1 46.419496 78.875406 46.419496 78.875406 0.000000 -0.000000 1.000000 1.000000 1.000000
92 1 110.797803 0.068177 110.797803 0.068177 0.000000 -0.000000 1.000000 1.000000 1.000000
93 1 174.410786 171.145117 174.410786 171.145117 -0.000000 -0.000000 1.000000 1.000000 1.000000
94 1 116.440626 82.677400 116.440626 82.677400 0.000000 -0.000000 1.000000 1.000000 1.000000
95 1 270.814349 31.854641 -2.287390 31.854641 -0.000000 -0.000000 1.000000 1.000000 1.000000
96 1 92.674441 60.051330 92.674441 60.051330 -0.000000 -0.000000 1.000000 1.000000 1.000000
97 1 72.982575 7.451892 72.982575 7.451892 -0.000000 -0.000000 1.000000 1.000000 1.000000
98 1 219.939770 100.698520 219.939770 100.698520 0.000000 0.000000 1.000000 1.000000 1.000000
99 1 148.894480 92.934110 148.894480 92.934110 -0.000000 0.000000 1.000000 1.000000 1.000000
100 1 196.155044 218.369863 196.155044 218.369863 0.000000 -0.000000 1.000000 1.000000 1.000000
101 1 136.454204 127.563588 136.454204 127.563588 -0.000001 0.000001 1.000000 1.000000 1.000000
102 1 145.010119 4.797367 145.010119 4.797367 0.000000 -0.000000 1.000000 1.000000 1.000000
103 1 220.818658 228.483838 220.818658 228.483838 -0.000000 -0.000000 1.000000 1.000000 1.000000
104 1 142.546025 241.130477 142.546025 241.130477 -0.000000 0.000000 1.000000 1.000000 1.000000
105 1 37.507074 1.693726 37.507074 1.693726 0.000000 -0.000000 1.000000 1.000000 1.000000
106 1 84.836681 203.767376 84.836681 203.767376 0.000000 -0.000000 1.000000 1.000000 1.000000
107 1 211.846652 51.570258 211.846652 51.570258 0.000000 0.000000 1.000000 1.000000 1.000000
108 1 15.951712 57.147895 15.951712 57.147895 0.000000 -0.000000 1.000000 1.000000 1.000000
109 1 149.731647 26.377369 149.731647 26.377369 0.000000 0.000000 1.000000 1.000000 1.000000
110 1 174.807859 12.443250 174.807859 12.443250 0.000000 -0.000000 1.000000 1.000000 1.000000
111 1 8.904650 214.603332 8.904650 214.603332 0.000000 -0.000000 1.000000 1.000000 1.000000
112 1 188.199558 14.923945 188.199558 14.923945 0.000000 -0.000000 1.000000 1.000000 1.000000
113 1 187.637388 86.480034 187.637388 86.480034 -0.000000 -0.000000 1.000000 1.000000 1.000000
114 1 93.084839 97.275695 93.084839 97.275695 -0.000000 -0.000000 1.000000 1.000000 1.000000
115 1 241.774882 137.567305 241.774882 137.567305 -0.000000 0.000000 1.000000 1.000000 1.000000
116 1 161.310849 93.612662 161.310849 93.612662 -0.000000 -0.000000 1.000000 1.000000 1.000000
117 1 175.335665 66.408019 175.335665 66.408019 0.000000 -0.000000 1.000000 1.000000 1.000000
118 1 181.590661 41.180523 181.590661 41.180523 -0.000000 -0.000000 1.000000 1.000000 1.000000
119 1 14.091812 257.316072 14.091812 257.316072 -0.000000 0.000000 1.000000 1.000000 1.000000
120 1 89.039308 103.855574 89.039308 103.855574 0.000000 -0.000000 1.000000 1.000000 1.000000
121 1 272.352919 193.849912 272.352919 193.849912 -0.000000 -0.000000 1.000000 1.000000 1.000000
122 1 234.763893 30.764584 234.763893 30.764584 -0.000000 -0.000000 1.000000 1.000000 1.000000
123 1 163.150413 31.268198 163.150413 31.268198 0.000000 0.000000 1.000000 1.000000 1.000000
124 1 244.162071 136.501336 244.162071 136.501336 0.000000 -0.000000 1.000000 1.000000 1.000000
125 1 149.334791 237.810426 149.334791 237.810426 0.000000 0.000000 1.000000 1.000000 1.000000
126 1 228.803014 151.637968 228.803014 151.637968 -0.000000 -0.000000 1.000000 1.000000 1.000000
127 1 233.139052 99.688246 233.139052 99.688246 0.000000 -0.000000 1.000000 1.000000 1.000000
128 1 271.250137 34.748481 271.250137 34.748481 -0.000000 0.000000 1.000000 1.000000 1.000000
129 1 82.252709 135.538345 82.252709 135.538345 0.000000 -0.000000 1.000000 1.000000 1.000000
130 1 197.742505 83.887021 197.742505 83.887021 0.000000 -0.000000 1.000000 1.000000 1.000000
131 1 199.198207 141.573011 199.198207 141.573011 0.000000 0.000000 1.000000 1.000000 1.000000
132 1 254.362397 198.758282 254.362397 198.758282 -0.000000 -0.000000 1.000000 1.000000 1.000000
133 1 176.437237 113.246501 176.437237 113.246501 -0.000000 -0.000000 1.000000 1.000000 1.000000
134 1 160.108842 83.704670 160.108842 83.704670 -0.000000 -0.000000 1.000000 1.000000 1.000000
135 1 239.043156 46.166929 239.043156 46.166929 -0.000000 -0.000000 1.000000 1.000000 1.000000
136 1 241.504477 260.368141 241.504477 260.368141 0.000000 -0.000000 1.000000 1.000000 1.000000
137 1 213.891917 171.311533 213.891917 171.311533 0.000000 0.000000 1.000000 1.000000 1.000000
138 1 163.653930 87.606676 163.653930 87.606676 0.000000 0.000000 1.000000 1.000000 1.000000
139 1 89.112331 47.485168 89.112331 47.485168 -0.000000 -0.000000 1.000000 1.000000 1.000000
140 1 127.674778 61.805627 127.674778 61.805627 0.000000 -0.000000 1.000000 1.000000 1.000000
141 1 67.202199 16.371975 67.202199 16.371975 -0.000000 -0.000000 1.000000 1.000000 1.000000
142 1 229.264271 34.839804 229.264271 34.839804 -0.000000 -0.000000 1.000000 1.000000 1.000000
143 1 44.726739 232.024228 44.726739 232.024228 0.000000 -0.000000 1.000000 1.000000 1.000000
144 1 247.913561 72.864396 247.913561 72.864396 -0.000000 0.000000 1.000000 1.000000 1.000000
145 1 171.921451 241.761186 171.921451 241.761186 0.000000 0.000000 1.000000 1.000000 1.000000
146 1 203.107041 167.290639 203.107041 167.290639 0.000000 -0.000000 1.000000 1.000000 1.000000
147 1 117.741886 9.192801 117.741886 9.192801 0.000000 -0.000000 1.000000 1.000000 1.000000
148 1 5.985758 240.725020 5.985758 240.725020 0.000000 -0.000000 1.000000 1.000000 1.000000
149 1 175.865744 135.740016 175.865744 135.740016 0.000000 0.000000 1.000000 1.000000 1.000000
150 1 1.286929 24.728892 274.388668 24.728892 0.000000 0.000000 1.000000 1.000000 1.000000
151 1 245.470318 258.090319 245.470318 258.090319 -0.000000 0.000000 1.000000 1.000000 1.000000
152 1 165.123060 21.523582 165.123060 21.523582 -0.000000 -0.000000 1.000000 1.000000 1.000000
153 1 165.053071 24.681329 165.053071 24.681329 0.000000 0.000000 1.000000 1.000000 1.000000
154 1 22.659821 192.087819 22.659821 192.087819 0.000000 0.000000 1.000000 1.000000 1.000000
155 1 257.965786 257.408603 -15.135953 257.408603 0.000000 0.000000 1.000000 1.000000 1.000000
156 1 129.005226 125.994209 129.005226 125.994209 0.000000 -0.000000 1.000000 1.000000 1.000000
157 1 193.661129 253.277667 193.661129 253.277667 -0.000000 -0.000000 1.000000 1.000000 1.000000
158 1 120.616029 13.943359 120.616029 13.943359 0.000000 0.000000 1.000000 1.000000 1.000000
159 1 57.313850 152.359701 57.313850 152.359701 -0.000000 -0.000000 1.000000 1.000000 1.000000
160 1 219.066268 162.381274 219.066268 162.381274 -0.000000 0.000000 1.000000 1.000000 1.000000
161 1 19.703489 108.631962 19.703489 108.631962 0.000000 -0.000000 1.000000 1.000000 1.000000
162 1 45.427533 160.614987 45.427533 160.614987 0.000000 0.000000 1.000000 1.000000 1.000000
163 1 35.323757 242.111915 35.323757 242.111915 0.000000 0.000000 1.000000 1.000000 1.000000
164 1 35.780560 211.261754 35.780560 211.261754 0.000000 -0.000000 1.000000 1.000000 1.000000
165 1 42.459900 232.231541 42.459900 232.231541 0.000000 0.000000 1.000000 1.000000 1.000000
166 1 253.290701 48.650674 253.290701 48.650674 0.000000 0.000000 1.000000 1.000000 1.000000
167 1 116.015263 94.110785 116.015263 94.110785 -0.000000 0.000000 1.000000 1.000000 1.000000
168 1 127.079492 121.674133 127.079492 121.674133 -0.000000 -0.000000 1.000000 1.000000 1.000000
169 1 45.078651 103.320935 45.078651 103.320935 0.000000 0.000000 1.000000 1.000000 1.000000
170 1 50.907779 98.474146 50.907779 98.474146 -0.000000 -0.000000 1.000000 1.000000 1.000000
171 1 8.648682 28.457098 8.648682 28.457098 -0.000000 -0.000000 1.000000 1.000000 1.000000
172 1 228.132782 121.248069 228.132782 121.248069 -0.000000 0.000000 1.000000 1.000000 1.000000
173 1 141.547180 163.060537 141.547180 163.060537 0.000000 -0.000000 1.000000 1.000000 1.000000
174 1 225.188119 213.480807 225.188119 213.480807 0.000000 0.000000 1.000000 1.000000 1.000000
175 1 30.367905 57.248674 30.367905 57.248674 0.000000 0.000000 1.000000 1.000000 1.000000
176 1 95.006746 184.137713 95.006746 184.137713 -0.000000 0.000000 1.000000 1.000000 1.000000
177 1 185.291084 86.428938 185.291084 86.428938 0.000000 -0.000000 1.000000 1.000000 1.000000
178 1 126.980943 215.335379 126.980943 215.335379 -0.000000 -0.000000 1.000000 1.000000 1.000000
179 1 134.743626 189.086038 134.743626 189.086038 -0.000000 -0.000000 1.000000 1.000000 1.000000
180 1 225.856769 87.116532 225.856769 87.116532 -0.000000 -0.000000 1.000000 1.000000 1.000000
181 1 180.241422 159.155748 180.241422 159.155748 0.000000 0.000000 1.000000 1.000000 1.000000
182 1 43.007889 125.201135 43.007889 125.201135 0.000000 -0.000000 1.000000 1.000000 1.000000
183 1 34.276116 266.650342 34.276116 266.650342 0.000000 -0.000000 1.000000 1.000000 1.000000
184 1 14.376344 182.682321 14.376344 182.682321 0.000000 0.000000 1.000000 1.000000 1.000000
185 1 113.296126 35.064716 113.296126 35.064716 -0.000000 0.000000 1.000000 1.000000 1.000000
186 1 243.675768 50.271369 243.675768 50.271369 -0.000000 0.000000 1.000000 1.000000 1.000000
187 1 186.738387 165.560275 186.738387 165.560275 0.000000 0.000000 1.000000 1.000000 1.000000
188 1 219.722609 248.652278 219.722609 248.652278 0.000000 -0.000000 1.000000 1.000000 1.000000
189 1 26.181846 55.078181 26.181846 55.078181 0.000000 0.000000 1.000000 1.000000 1.000000
190 1 61.763316 146.076066 61.763316 146.076066 -0.000000 0.000000 1.000000 1.000000 1.000000
191 1 67.928260 68.349637 67.928260 68.349637 0.000000 0.000000 1.000000 1.000000 1.000000
192 1 19.851674 253.837672 19.851674 253.837672 -0.000000 0.000000 1.000000 1.000000 1.000000
193 1 202.504282 52.247169 202.504282 52.247169 0.000000 -0.000000 1.000000 1.000000 1.000000
194 1 158.188472 153.809701 158.188472 153.809701 0.000000 -0.000000 1.000000 1.000000 1.000000
195 1 83.016411 25.005948 83.016411 25.005948 0.000000 -0.000000 1.000000 1.000000 1.000000
196 1 80.993880 263.894121 80.993880 -9.207618 -0.000000 0.000000 1.000000 1.000000 1.000000
197 1 89.605514 268.074550 89.605514 268.074550 -0.000000 -0.000000 1.000000 1.000000 1.000000
198 1 91.511689 128.386777 91.511689 128.386777 0.000000 0.000000 1.000000 1.000000 1.000000
199 1 28.593075 256.781221 28.593075 256.781221 -0.000000 -0.000000 1.000000 1.000000 1.000000
200 1 229.655585 149.387868 229.655585 149.387868 0.000000 -0.000000 1.000000 1.000000 1.000000
201 1 272.888199 85.254705 -0.213540 85.254705 0.000000 0.000000 1.000000 1.000000 1.000000
202 1 143.206417 217.130493 143.206417 217.130493 0.000000 -0.000000 1.000000 1.000000 1.000000
203 1 80.273079 122.882537 80.273079 122.882537 -0.000000 -0.000000 1.000000 1.000000 1.000000
204 1 122.509244 175.039438 122.509244 175.039438 -0.000000 -0.000000 1.000000 1.000000 1.000000
205 1 176.957516 246.373505 176.957516 246.373505 0.000000 0.000000 1.000000 1.000000 1.000000
206 1 240.033007 251.793381 240.033007 251.793381 0.000000 -0.000000 1.000000 1.000000 1.000000
207 1 133.957679 222.658819 133.957679 222.658819 -0.000000 -0.000000 1.000000 1.000000 1.000000
208 1 28.317924 143.905400 28.317924 143.905400 0.000000 0.000000 1.000000 1.000000 1.000000
209 1 201.029679 41.351324 201.029679 41.351324 -0.000000 -0.000000 1.000000 1.000000 1.000000
210 1 264.744253 134.018943 -8.357486 134.018943 0.000000 -0.000000 1.000000 1.000000 1.000000
211 1 89.339417 7.692028 89.339417 7.692028 0.000000 -0.000000 1.000000 1.000000 1.000000
212 1 118.688299 18.081727 118.688299 18.081727 -0.000000 0.000000 1.000000 1.000000 1.000000
213 1 175.470190 270.397595 175.470190 -2.704144 -0.000000 -0.000000 1.000000 1.000000 1.000000
214 1 61.225635 47.667074 61.225635 47.667074 0.000000 0.000000 1.000000 1.000000 1.000000
215 1 30.169553 86.278458 30.169553 86.278458 -0.000000 0.000000 1.000000 1.000000 1.000000
216 1 102.692201 179.804946 102.692201 179.804946 0.000000 -0.000000 1.000000 1.000000 1.000000
217 1 160.735931 58.310950 160.735931 58.310950 0.000000 0.000000 1.000000 1.000000 1.000000
218 1 112.757737 219.954523 112.757737 219.954523 0.000000 0.000000 1.000000 1.000000 1.000000
219 1 196.843807 3.832833 196.843807 3.832833 0.000000 0.000000 1.000000 1.000000 1.000000
220 1 36.084146 219.905471 36.084146 219.905471 -0.000000 -0.000000 1.000000 1.000000 1.000000
221 1 244.630837 209.403844 244.630837 209.403844 0.000000 0.000000 1.000000 1.000000 1.000000
222 1 103.179303 28.709660 103.179303 28.709660 -0.000000 0.000000 1.000000 1.000000 1.000000
223 1 118.661433 179.425859 118.661433 179.425859 -0.000000 0.000000 1.000000 1.000000 1.000000
224 1 161.337648 242.553295 161.337648 242.553295 -0.000000 0.000000 1.000000 1.000000 1.000000
225 1 113.818470 135.894150 113.818470 135.894150 0.000000 0.000000 1.000000 1.000000 1.000000
226 1 66.549599 246.355890 66.549599 246.355890 0.000000 -0.000000 1.000000 1.000000 1.000000
227 1 139.812162 121.127914 139.812162 121.127914 0.000000 -0.000001 1.000000 1.000000 1.000000
228 1 92.489427 116.916966 92.489427 116.916966 0.000000 -0.000000 1.000000 1.000000 1.000000
229 1 33.111331 131.145689 33.111331 131.145689 -0.000000 -0.000000 1.000000 1.000000 1.000000
230 1 170.793963 125.614093 170.793963 125.614093 0.000000 -0.000000 1.000000 1.000000 1.000000
231 1 116.067118 225.934710 116.067118 225.934710 0.000000 -0.000000 1.000000 1.000000 1.000000
232 1 69.976791 76.375519 69.976791 76.375519 -0.000000 -0.000000 1.000000 1.000000 1.000000
233 1 127.295335 181.930328 127.295335 181.930328 -0.000000 -0.000000 1.000000 1.000000 1.000000
234 1 214.072394 155.462998 214.072394 155.462998 -0.000000 0.000000 1.000000 1.000000 1.000000
235 1 104.895978 154.530045 104.895978 154.530045 -0.000000 -0.000000 1.000000 1.000000 1.000000
236 1 200.844109 267.350758 200.844109 267.350758 0.000000 0.000000 1.000000 1.000000 1.000000
237 1 146.612354 73.646584 146.612354 73.646584 -0.000000 -0.000000 1.000000 1.000000 1.000000
238 1 251.976818 35.196726 251.976818 35.196726 -0.000000 0.000000 1.000000 1.000000 1.000000
239 1 27.792443 34.936909 27.792443 34.936909 -0.000000 0.000000 1.000000 1.000000 1.000000
240 1 90.725518 263.276300 90.725518 263.276300 0.000000 0.000000 1.000000 1.000000 1.000000
241 1 94.752625 137.798223 94.752625 137.798223 0.000000 0.000000 1.000000 1.000000 1.000000
242 1 229.822725 211.206325 229.822725 211.206325 0.000000 0.000000 1.000000 1.000000 1.000000
243 1 57.330881 144.723023 57.330881 144.723023 0.000000 0.000000 1.000000 1.000000 1.000000
244 1 231.126125 83.868429 231.126125 83.868429 -0.000000 0.000000 1.000000 1.000000 1.000000
245 1 118.799042 93.944059 118.799042 93.944059 -0.000000 -0.000000 1.000000 1.000000 1.000000
246 1 100.719921 220.462934 100.719921 220.462934 -0.000000 -0.000000 1.000000 1.000000 1.000000
247 1 268.205180 177.762675 -4.896559 177.762675 -0.000000 -0.000000 1.000000 1.000000 1.000000
248 1 171.380165 264.048194 171.380165 264.048194 -0.000000 -0.000000 1.000000 1.000000 1.000000
249 1 43.983641 167.981541 43.983641 167.981541 -0.000000 0.000000 1.000000 1.000000 1.000000
250 1 251.063188 23.563234 251.063188 23.563234 -0.000000 -0.000000 1.000000 1.000000 1.000000
251 1 47.484131 182.341866 47.484131 182.341866 -0.000000 -0.000000 1.000000 1.000000 1.000000
252 1 196.338617 216.361910 196.338617 216.361910 -0.000000 -0.000000 1.000000 1.000000 1.000000
253 1 180.337863 30.117340 180.337863 30.117340 0.000000 0.000000 1.000000 1.000000 1.000000
254 1 195.825677 248.104941 195.825677 248.104941 -0.000000 -0.000000 1.000000 1.000000 1.000000
255 1 153.932800 212.147017 153.932800 212.147017 -0.000000 -0.000000 1.000000 1.000000 1.000000
256 1 191.604888 40.145412 191.604888 40.145412 -0.000000 -0.000000 1.000000 1.000000 1.000000
257 1 72.610588 147.014551 72.610588 147.014551 -0.000000 0.000000 1.000000 1.000000 1.000000
258 1 16.669990 134.140407 16.669990 134.140407 0.000000 0.000000 1.000000 1.000000 1.000000
259 1 235.226388 251.996760 235.226388 251.996760 -0.000000 -0.000000 1.000000 1.000000 1.000000
260 1 111.410113 124.825645 111.410113 124.825645 0.000000 0.000000 1.000000 1.000000 1.000000
261 1 20.635754 43.587823 20.635754 43.587823 -0.000000 -0.000000 1.000000 1.000000 1.000000
262 1 19.439055 257.618805 19.439055 257.618805 0.000000 -0.000000 1.000000 1.000000 1.000000
263 1 237.642915 195.883167 237.642915 195.883167 -0.000000 -0.000000 1.000000 1.000000 1.000000
264 1 144.496860 146.989395 144.496860 146.989395 -0.000000 -0.000000 1.000000 1.000000 1.000000
265 1 149.699203 259.370286 149.699203 259.370286 0.000000 0.000000 1.000000 1.000000 1.000000
266 1 39.220982 151.968796 39.220982 151.968796 -0.000000 0.000000 1.000000 1.000000 1.000000
267 1 206.280633 34.035954 206.280633 34.035954 0.000000 -0.000000 1.000000 1.000000 1.000000
268 1 268.236458 59.488112 268.236458 59.488112 0.000000 0.000000 1.000000 1.000000 1.000000
269 1 97.198033 69.106423 97.198033 69.106423 -0.000000 0.000000 1.000000 1.000000 1.000000
270 1 85.030988 151.434632 85.030988 151.434632 -0.000000 0.000000 1.000000 1.000000 1.000000
271 1 260.722351 104.954878 260.722351 104.954878 -0.000000 0.000000 1.000000 1.000000 1.000000
272 1 83.736361 193.842387 83.736361 193.842387 -0.000000 -0.000000 1.000000 1.000000 1.000000
273 1 201.900409 22.128630 201.900409 22.128630 -0.000000 -0.000000 1.000000 1.000000 1.000000
274 1 184.489751 88.726085 184.489751 88.726085 0.000000 0.000000 1.000000 1.000000 1.000000
275 1 221.265687 198.201716 221.265687 198.201716 0.000000 -0.000000 1.000000 1.000000 1.000000
276 1 218.968172 226.399846 218.968172 226.399846 0.000000 -0.000000 1.000000 1.000000 1.000000
277 1 70.407225 218.420714 70.407225 218.420714 0.000000 0.000000 1.000000 1.000000 1.000000
278 1 228.416388 43.211258 228.416388 43.211258 0.000000 -0.000000 1.000000 1.000000 1.000000
279 1 88.833125 91.069577 88.833125 91.069577 0.000000 0.000000 1.000000 1.000000 1.000000
280 1 189.041925 261.865983 189.041925 -11.235756 -0.000000 0.000000 1.000000 1.000000 1.000000
281 1 178.733900 146.515080 178.733900 146.515080 0.000000 0.000000 1.000000 1.000000 1.000000
282 1 259.344252 4.150563 -13.757487 277.252302 -0.000000 0.000000 1.000000 1.000000 1.000000
283 1 129.868301 221.858604 129.868301 221.858604 -0.000000 0.000000 1.000000 1.000000 1.000000
284 1 93.031041 110.352260 93.031041 110.352260 -0.000000 0.000000 1.000000 1.000000 1.000000
285 1 71.184670 89.745622 71.184670 89.745622 -0.000000 -0.000000 1.000000 1.000000 1.000000
286 1 236.343072 143.964451 236.343072 143.964451 -0.000000 0.000000 1.000000 1.000000 1.000000
287 1 197.894798 79.592707 197.894798 79.592707 -0.000000 -0.000000 1.000000 1.000000 1.000000
288 1 144.628425 219.537023 144.628425 219.537023 0.000000 -0.000000 1.000000 1.000000 1.000000
289 1 135.399682 82.553688 135.399682 82.553688 0.000000 0.000000 1.000000 1.000000 1.000000
290 1 109.465756 218.699886 109.465756 218.699886 0.000000 -0.000000 1.000000 1.000000 1.000000
291 1 43.782138 258.088181 43.782138 258.088181 -0.000000 0.000000 1.000000 1.000000 1.000000
292 1 255.855620 132.258006 255.855620 132.258006 -0.000000 -0.000000 1.000000 1.000000 1.000000
293 1 113.699591 127.637915 113.699591 127.637915 0.000000 -0.000000 1.000000 1.000000 1.000000
294 1 127.096302 102.710824 127.096302 102.710824 0.000000 0.000000 1.000000 1.000000 1.000000
295 1 122.029595 40.184104 122.029595 40.184104 0.000000 0.000000 1.000000 1.000000 1.000000
296 1 158.467427 260.168681 158.467427 260.168681 -0.000000 0.000000 1.000000 1.000000 1.000000
297 1 121.148494 36.067226 121.148494 36.067226 -0.000000 0.000000 1.000000 1.000000 1.000000
298 1 107.215876 73.647229 107.215876 73.647229 -0.000000 -0.000000 1.000000 1.000000 1.000000
299 1 143.406145 26.003798 143.406145 26.003798 0.000000 -0.000000 1.000000 1.000000 1.000000
300 1 213.620534 112.283181 213.620534 112.283181 -0.000000 0.000000 1.000000 1.000000 1.000000
301 1 211.243751 36.786626 211.243751 36.786626 0.000000 0.000000 1.000000 1.000000 1.000000
302 1 218.479213 251.524751 218.479213 251.524751 -0.000000 0.000000 1.000000 1.000000 1.000000
303 1 46.341937 255.730928 46.341937 255.730928 0.000000 -0.000000 1.000000 1.000000 1.000000
304 1 174.046183 162.527875 174.046183 162.527875 -0.000000 -0.000000 1.000000 1.000000 1.000000
305 1 265.087644 195.612033 265.087644 195.612033 -0.000000 0.000000 1.000000 1.000000 1.000000
306 1 27.374818 217.569098 27.374818 217.569098 0.000000 0.000000 1.000000 1.000000 1.000000
307 1 215.536076 122.643958 215.536076 122.643958 0.000000 -0.000000 1.000000 1.000000 1.000000
308 1 245.644445 85.275744 245.644445 85.275744 -0.000000 0.000000 1.000000 1.000000 1.000000
309 1 210.558376 234.623740 210.558376 234.623740 0.000000 0.000000 1.000000 1.000000 1.000000
310 1 242.401141 40.176172 242.401141 40.176172 -0.000000 -0.000000 1.000000 1.000000 1.000000
311 1 269.375812 90.428980 269.375812 90.428980 -0.000000 -0.000000 1.000000 1.000000 1.000000
312 1 93.127145 247.164802 93.127145 247.164802 -0.000000 0.000000 1.000000 1.000000 1.000000
313 1 44.564167 82.401496 44.564167 82.401496 0.000000 -0.000000 1.000000 1.000000 1.000000
314 1 242.131313 6.384870 242.131313 6.384870 0.000000 0.000000 1.000000 1.000000 1.000000
315 1 172.196297 213.563032 172.196297 213.563032 -0.000000 0.000000 1.000000 1.000000 1.000000
316 1 183.431357 178.984008 183.431357 178.984008 -0.000000 0.000000 1.000000 1.000000 1.000000