ITEM: TIMESTEP
2200.000000
ITEM: NUMBER OF ATOMS
5000
ITEM: BOX BOUNDS xy xz yz
0 239.327519 0
0 239.327519 0
0 2 0
ITEM: ATOMS id type x y xu yu vx vy radius m z
0 1 220.632684 217.557674 -18.694835 217.557674 -0.000000 -0.000000 1.000000 1.000000 1.000000
1 1 39.454125 110.148487 39.454125 110.148487 -0.000000 0.000000 1.000000 1.000000 1.000000
2 1 200.640441 24.289260 200.640441 24.289260 0.000000 0.000000 1.000000 1.000000 1.000000
3 1 25.690738 182.994444 25.690738 182.994444 0.000000 -0.000000 1.000000 1.000000 1.000000
4 1 171.372007 78.273386 171.372007 78.273386 0.000000 -0.000000 1.000000 1.000000 1.000000
5 1 96.414610 24.773479 96.414610 24.773479 0.000000 -0.000000 1.000000 1.000000 1.000000
6 1 28.874608 99.097885 28.874608 99.097885 0.000000 0.000000 1.000000 1.000000 1.000000
7 1 91.602075 47.930503 91.602075 47.930503 0.000000 0.000000 1.000000 1.000000 1.000000
8 1 153.169666 33.393871 153.169666 33.393871 -0.000000 -0.000000 1.000000 1.000000 1.000000
9 1 87.646572 159.378741 87.646572 159.378741 -0.000000 -0.000000 1.000000 1.000000 1.000000
10 1 30.639552 198.707509 30.639552 198.707509 -0.000000 0.000000 1.000000 1.000000 1.000000
11 1 208.651292 139.293928 208.651292 139.293928 0.000000 -0.000000 1.000000 1.000000 1.000000
12 1 103.029830 232.983138 103.029830 232.983138 0.000000 -0.000000 1.000000 1.000000 1.000000
13 1 189.338187 67.854840 189.338187 67.854840 0.000000 0.000000 1.000000 1.000000 1.000000
14 1 133.001901 185.462188 133.001901 185.462188 -0.000000 -0.000000 1.000000 1.000000 1.000000
15 1 74.474833 61.386366 74.474833 61.386366 -0.000000 -0.000000 1.000000 1.000000 1.000000
16 1 37.249583 48.367336 37.249583 48.367336 -0.000000 0.000000 1.000000 1.000000 1.000000
17 1 118.651278 133.961327 118.651278 133.961327 -0.000000 0.000000 1.000000 1.000000 1.000000
18 1 48.409516 49.126749 48.409516 49.126749 -0.000000 0.000000 1.000000 1.000000 1.000000
19 1 90.700152 92.412858 90.700152 92.412858 -0.000000 -0.000000 1.000000 1.000000 1.000000
20 1 112.414721 193.225734 112.414721 193.225734 0.000000 -0.000000 1.000000 1.000000 1.000000
21 1 173.767199 42.366151 173.767199 42.366151 -0.000000 0.000000 1.000000 1.000000 1.000000
22 1 9.998775 236.517732 249.326294 236.517732 0.000000 0.000000 1.000000 1.000000 1.000000
23 1 130.439106 87.293370 130.439106 87.293370 -0.000000 -0.000000 1.000000 1.000000 1.000000
24 1 164.206750 206.846900 164.206750 206.846900 0.000000 0.000000 1.000000 1.000000 1.000000
25 1 76.714186 92.089079 76.714186 92.089079 0.000000 0.000000 1.000000 1.000000 1.000000
26 1 177.181027 92.707463 177.181027 92.707463 0.000000 0.000000 1.000000 1.000000 1.000000
27 1 127.630485 123.471318 127.630485 123.471318 -0.000000 -0.000000 1.000000 1.000000 1.000000
28 1 218.422317 73.609064 218.422317 73.609064 0.000000 0.000000 1.000000 1.000000 1.000000
29 1 176.098749 145.727416 176.098749 145.727416 -0.000000 0.000000 1.000000 1.000000 1.000000
30 1 230.148489 6.914496 230.148489 246.242015 -0.000000 -0.000000 1.000000 1.000000 1.000000
31 1 110.197414 7.745263 110.197414 7.745263 -0.000000 -0.000000 1.000000 1.000000 1.000000
32 1 114.386607 121.794705 114.386607 121.794705 -0.000000 0.000000 1.000000 1.000000 1.000000
33 1 121.401481 0.777973 121.401481 240.105492 -0.000000 0.000000 1.000000 1.000000 1.000000
34 1 219.939575 222.997655 219.939575 222.997655 -0.000000 -0.000000 1.000000 1.000000 1.000000
35 1 237.201481 169.330352 237.201481 169.330352 -0.000000 0.000000 1.000000 1.000000 1.000000
36 1 127.187138 136.653515 127.187138 136.653515 -0.000000 -0.000000 1.000000 1.000000 1.000000
37 1 28.937541 136.895768 28.937541 136.895768 -0.000000 -0.000000 1.000000 1.000000 1.000000
38 1 0.538865 190.126765 239.866384 190.126765 0.000000 0.000000 1.000000 1.000000 1.000000
39 1 204.143174 33.606955 204.143174 33.606955 0.000000 -0.000000 1.000000 1.000000 1.000000
40 1 227.794683 139.668460 227.794683 139.668460 -0.000000 -0.000000 1.000000 1.000000 1.000000
41 1 38.259864 185.667409 38.259864 185.667409 -0.000000 0.000000 1.000000 1.000000 1.000000
42 1 16.382357 74.729451 16.382357 74.729451 -0.000000 0.000000 1.000000 1.000000 1.000000
43 1 210.711167 79.963881 210.711167 79.963881 -0.000000 0.000000 1.000000 1.000000 1.000000
44 1 109.154088 207.225965 109.154088 -32.101554 0.000000 -0.000000 1.000000 1.000000 1.000000
45 1 220.209614 79.677317 220.209614 79.677317 0.000000 -0.000000 1.000000 1.000000 1.000000
46 1 57.410053 30.478983 57.410053 30.478983 -0.000000 0.000000 1.000000 1.000000 1.000000
47 1 190.918291 119.971763 190.918291 119.971763 0.000000 -0.000000 1.000000 1.000000 1.000000
48 1 123.845525 167.901517 123.845525 167.901517 -0.000000 0.000000 1.000000 1.000000 1.000000
49 1 149.751268 75.484538 149.751268 75.484538 0.000000 -0.000000 1.000000 1.000000 1.000000
50 1 101.608927 122.461561 101.608927 122.461561 -0.000000 0.000000 1.000000 1.000000 1.000000
51 1 206.746279 141.613336 206.746279 141.613336 0.000000 0.000000 1.000000 1.000000 1.000000
52 1 168.465458 190.823984 168.465458 190.823984 -0.000000 -0.000000 1.000000 1.000000 1.000000
53 1 185.096753 128.457052 185.096753 128.457052 0.000000 0.000000 1.000000 1.000000 1.000000
54 1 189.773106 203.474168 189.773106 203.474168 -0.000000 -0.000000 1.000000 1.000000 1.000000
55 1 103.284191 38.535554 103.284191 38.535554 0.000000 -0.000000 1.000000 1.000000 1.000000
56 1 139.773134 157.987279 139.773134 157.987279 0.000000 0.000000 1.000000 1.000000 1.000000
57 1 22.477742 115.551186 22.477742 115.551186 0.000000 -0.000000 1.000000 1.000000 1.000000
58 1 232.991833 111.127538 232.991833 111.127538 -0.000000 -0.000000 1.000000 1.000000 1.000000
59 1 51.138758 223.962075 51.138758 223.962075 0.000000 0.000000 1.000000 1.000000 1.000000
60 1 1.613035 145.758673 240.940554 145.758673 0.000000 0.000000 1.000000 1.000000 1.000000
61 1 116.670747 220.885005 116.670747 220.885005 -0.000000 -0.000000 1.000000 1.000000 1.000000
62 1 218.143069 238.398804 218.143069 238.398804 0.000000 -0.000000 1.000000 1.000000 1.000000
63 1 164.522421 148.148349 164.522421 148.148349 0.000000 -0.000000 1.000000 1.000000 1.000000
64 1 113.139867 156.839827 113.139867 156.839827 0.000000 0.000000 1.000000 1.000000 1.000000
65 1 108.621575 67.874195 108.621575 67.874195 -0.000000 0.000000 1.000000 1.000000 1.000000
66 1 199.256899 128.614173 199.256899 128.614173 0.000000 -0.000000 1.000000 1.000000 1.000000
67 1 110.715003 4.907705 110.715003 4.907705 0.000000 -0.000000 1.000000 1.000000 1.000000
68 1 101.239305 57.101522 101.239305 57.101522 -0.000000 0.000000 1.000000 1.000000 1.000000
69 1 83.387162 66.165177 83.387162 66.165177 -0.000000 -0.000000 1.000000 1.000000 1.000000
70 1 22.554113 195.960661 22.554113 195.960661 -0.000000 -0.000000 1.000000 1.000000 1.000000
71 1 33.472807 36.719639 33.472807 36.719639 -0.000000 -0.000000 1.000000 1.000000 1.000000
72 1 124.108531 12.870213 124.108531 12.870213 0.000000 -0.000000 1.000000 1.000000 1.000000
73 1 180.796267 25.137715 180.796267 25.137715 -0.000000 0.000000 1.000000 1.000000 1.000000
74 1 188.990194 87.210469 188.990194 87.210469 0.000000 0.000000 1.000000 1.000000 1.000000
75 1 111.196180 39.301189 111.196180 39.301189 -0.000000 0.000000 1.000000 1.000000 1.000000
76 1 152.892984 206.589944 152.892984 206.589944 0.000000 -0.000000 1.000000 1.000000 1.000000
77 1 160.056138 227.314945 160.056138 227.314945 -0.000000 -0.000000 1.000000 1.000000 1.000000
78 1 152.243565 139.223868 152.243565 139.223868 0.000000 -0.000000 1.000000 1.000000 1.000000
79 1 73.445165 50.488395 73.445165 50.488395 0.000000 -0.000000 1.000000 1.000000 1.000000
80 1 197.087057 7.060380 197.087057 7.060380 0.000000 -0.000000 1.000000 1.000000 1.000000
81 1 72.527983 222.156913 72.527983 222.156913 0.000000 -0.000000 1.000000 1.000000 1.000000
82 1 197.917216 91.234241 197.917216 91.234241 0.000000 0.000000 1.000000 1.000000 1.000000
83 1 55.500138 160.174192 55.500138 160.174192 0.000000 -0.000000 1.000000 1.000000 1.000000
84 1 226.236694 192.926162 226.236694 192.926162 -0.000000 0.000000 1.000000 1.000000 1.000000
85 1 91.998571 84.368706 91.998571 84.368706 0.000000 0.000000 1.000000 1.000000 1.000000
86 1 123.040228 189.081349 123.040228 189.081349 -0.000000 0.000000 1.000000 1.000000 1.000000
87 1 17.320709 80.656177 17.320709 80.656177 0.000000 0.000000 1.000000 1.000000 1.000000
88 1 161.412833 124.824508 161.412833 124.824508 -0.000000 -0.000000 1.000000 1.000000 1.000000
89 1 158.132139 186.598746 158.132139 186.598746 -0.000000 -0.000000 1.000000 1.000000 1.000000
90 1 201.821297 33.722244 201.821297 33.722244 -0.000000 -0.000000 1.000000 1.000000 1.000000
91 1 19.145664 208.551159 19.145664 208.551159 0.000000 -0.000000 1.000000 1.000000 1.000000
92 1 221.894698 220.100188 221.894698 220.100188 -0.000000 -0.000000 1.000000 1.000000 1.000000
93 1 154.838141 93.970885 154.838141 93.970885 -0.000000 0.000000 1.000000 1.000000 1.000000
94 1 196.640304 9.739651 196.640304 249.067170 -0.000000 0.000000 1.000000 1.000000 1.000000
95 1 64.017333 56.120520 64.017333 56.120520 -0.000000 0.000000 1.000000 1.000000 1.000000
96 1 147.496087 5.558382 147.496087 244.885901 0.000000 -0.000000 1.000000 1.000000 1.000000
97 1 127.187227 206.242654 127.187227 206.242654 0.000000 -0.000000 1.000000 1.000000 1.000000
98 1 191.598164 5.112830 191.598164 5.112830 -0.000000 -0.000000 1.000000 1.000000 1.000000
99 1 70.952340 51.186104 70.952340 51.186104 0.000000 -0.000000 1.000000 1.000000 1.000000
100 1 171.869416 87.266895 171.869416 87.266895 0.000000 0.000000 1.000000 1.000000 1.000000
101 1 142.020977 183.955727 142.020977 183.955727 -0.000000 -0.000000 1.000000 1.000000 1.000000
102 1 192.146605 115.032314 192.146605 115.032314 0.000000 -0.000000 1.000000 1.000000 1.000000
103 1 225.424266 84.754873 225.424266 84.754873 -0.000000 0.000000 1.000000 1.000000 1.000000
104 1 110.329567 146.956414 110.329567 146.956414 0.000000 -0.000000 1.000000 1.000000 1.000000
105 1 113.219135 139.161991 113.219135 139.161991 -0.000000 -0.000000 1.000000 1.000000 1.000000
106 1 136.140034 230.475600 136.140034 230.475600 -0.000000 0.000000 1.000000 1.000000 1.000000
107 1 106.303175 148.586643 106.303175 148.586643 0.000000 -0.000000 1.000000 1.000000 1.000000
108 1 149.667815 14.758650 149.667815 14.758650 0.000000 -0.000000 1.000000 1.000000 1.000000
109 1 66.127567 60.175851 66.127567 60.175851 -0.000000 -0.000000 1.000000 1.000000 1.000000
110 1 85.132621 178.542552 85.132621 178.542552 -0.000000 0.000000 1.000000 1.000000 1.000000
111 1 179.818711 186.717146 179.818711 186.717146 -0.000000 0.000000 1.000000 1.000000 1.000000
112 1 180.368397 218.888826 180.368397 218.888826 -0.000000 -0.000000 1.000000 1.000000 1.000000
113 1 105.792252 98.419558 105.792252 98.419558 -0.000000 -0.000000 1.000000 1.000000 1.000000
114 1 153.192050 130.622528 153.192050 130.622528 0.000000 0.000000 1.000000 1.000000 1.000000
115 1 89.127972 88.110709 89.127972 88.110709 0.000000 0.000000 1.000000 1.000000 1.000000
116 1 235.410985 228.846650 -3.916534 228.846650 0.000000 0.000000 1.000000 1.000000 1.000000
117 1 167.804907 157.739188 167.804907 157.739188 0.000000 -0.000000 1.000000 1.000000 1.000000
118 1 75.470750 174.803237 75.470750 174.803237 -0.000000 -0.000000 1.000000 1.000000 1.000000
119 1 19.356837 206.457931 19.356837 206.457931 -0.000000 0.000000 1.000000 1.000000 1.000000
120 1 96.503889 228.574744 96.503889 228.574744 0.000000 -0.000000 1.000000 1.000000 1.000000
121 1 48.004336 183.678844 48.004336 183.678844 0.000000 -0.000000 1.000000 1.000000 1.000000
122 1 173.353302 234.070787 173.353302 234.070787 -0.000000 -0.000000 1.000000 1.000000 1.000000
123 1 136.070340 91.458316 136.070340 91.458316 -0.000000 0.000000 1.000000 1.000000 1.000000
124 1 233.949028 233.380639 233.949028 233.380639 0.000000 0.000000 1.000000 1.000000 1.000000
125 1 104.339543 158.627639 104.339543 158.627639 0.000000 0.000000 1.000000 1.000000 1.000000
126 1 185.452852 157.809700 185.452852 157.809700 0.000000 0.000000 1.000000 1.000000 1.000000
127 1 206.393989 51.160453 206.393989 51.160453 0.000000 0.000000 1.000000 1.000000 1.000000
128 1 124.393896 117.095356 124.393896 117.095356 -0.000000 0.000000 1.000000 1.000000 1.000000
129 1 55.906589 168.588713 55.906589 168.588713 0.000000 -0.000000 1.000000 1.000000 1.000000
130 1 25.690069 59.653571 25.690069 59.653571 0.000000 0.000000 1.000000 1.000000 1.000000
131 1 216.996224 164.550512 216.996224 164.550512 -0.000000 -0.000000 1.000000 1.000000 1.000000
132 1 146.998391 167.183322 146.998391 167.183322 0.000000 0.000000 1.000000 1.000000 1.000000
133 1 117.385441 201.913563 117.385441 201.913563 -0.000000 -0.000000 1.000000 1.000000 1.000000
134 1 44.368760 187.819655 44.368760 187.819655 -0.000000 -0.000000 1.000000 1.000000 1.000000
135 1 87.890788 218.709499 87.890788 218.709499 0.000000 0.000000 1.000000 1.000000 1.000000
136 1 82.285839 207.425702 82.285839 207.425702 -0.000000 -0.000000 1.000000 1.000000 1.000000
137 1 45.902649 113.685538 45.902649 113.685538 0.000000 -0.000000 1.000000 1.000000 1.000000
138 1 19.975812 4.100473 19.975812 243.427992 0.000000 -0.000000 1.000000 1.000000 1.000000
139 1 85.481383 163.571087 85.481383 163.571087 -0.000000 -0.000000 1.000000 1.000000 1.000000
140 1 169.582061 120.666814 169.582061 120.666814 0.000000 0.000000 1.000000 1.000000 1.000000
141 1 234.579368 177.042024 -4.748151 177.042024 -0.000000 0.000000 1.000000 1.000000 1.000000
142 1 207.584167 66.223803 207.584167 66.223803 0.000000 0.000000 1.000000 1.000000 1.000000
143 1 174.938479 125.813903 174.938479 125.813903 0.000000 0.000000 1.000000 1.000000 1.000000
144 1 210.519418 162.714078 210.519418 162.714078 0.000000 -0.000000 1.000000 1.000000 1.000000
145 1 64.017892 196.351482 64.017892 196.351482 0.000000 -0.000000 1.000000 1.000000 1.000000
146 1 22.365452 233.742104 22.365452 233.742104 -0.000000 -0.000000 1.000000 1.000000 1.000000
147 1 206.434226 5.671230 206.434226 5.671230 0.000000 0.000000 1.000000 1.000000 1.000000
148 1 149.248126 216.691325 149.248126 216.691325 0.000000 -0.000000 1.000000 1.000000 1.000000
149 1 65.597725 72.526126 65.597725 72.526126 0.000000 -0.000000 1.000000 1.000000 1.000000
150 1 42.842583 70.149699 42.842583 70.149699 0.000000 -0.000000 1.000000 1.000000 1.000000
151 1 17.223501 201.989817 17.223501 201.989817 0.000000 0.000000 1.000000 1.000000 1.000000
152 1 97.219103 165.871913 97.219103 165.871913 -0.000000 -0.000000 1.000000 1.000000 1.000000
153 1 32.828461 217.819923 32.828461 217.819923 0.000000 0.000000 1.000000 1.000000 1.000000
154 1 1.620293 196.265743 1.620293 196.265743 -0.000000 -0.000000 1.000000 1.000000 1.000000
155 1 123.943923 97.168368 123.943923 97.168368 0.000000 -0.000000 1.000000 1.000000 1.000000
156 1 166.590168 191.548072 166.590168 191.548072 0.000000 0.000000 1.000000 1.000000 1.000000
157 1 224.870558 170.908693 224.870558 170.908693 -0.000000 -0.000000 1.000000 1.000000 1.000000
158 1 89.394405 140.522361 89.394405 140.522361 -0.000000 -0.000000 1.000000 1.000000 1.000000
159 1 190.705358 83.262672 190.705358 83.262672 0.000000 0.000000 1.000000 1.000000 1.000000
160 1 180.004723 166.127011 180.004723 166.127011 -0.000000 -0.000000 1.000000 1.000000 1.000000
161 1 62.419773 162.708635 62.419773 162.708635 -0.000000 0.000000 1.000000 1.000000 1.000000
162 1 142.059487 157.765477 142.059487 157.765477 0.000000 0.000000 1.000000 1.000000 1.000000
163 1 59.148063 237.682020 59.148063 237.682020 0.000000 -0.000000 1.000000 1.000000 1.000000
164 1 195.048811 15.035387 195.048811 15.035387 -0.000000 0.000000 1.000000 1.000000 1.000000
165 1 50.546322 110.723769 50.546322 110.723769 -0.000000 -0.000000 1.000000 1.000000 1.000000
166 1 23.113360 39.509227 23.113360 39.509227 0.000000 -0.000000 1.000000 1.000000 1.000000
167 1 93.535044 66.289422 93.535044 66.289422 0.000000 -0.000000 1.000000 1.000000 1.000000
168 1 147.387117 237.513016 147.387117 -1.814503 -0.000000 0.000000 1.000000 1.000000 1.000000
169 1 176.291444 137.764031 176.291444 137.764031 0.000000 0.000000 1.000000 1.000000 1.000000
170 1 207.013033 136.373719 207.013033 136.373719 0.000000 -0.000000 1.000000 1.000000 1.000000
171 1 211.947612 224.521100 211.947612 224.521100 -0.000000 0.000000 1.000000 1.000000 1.000000
172 1 216.072298 2.003649 216.072298 2.003649 -0.000000 0.000000 1.000000 1.000000 1.000000
173 1 43.453772 133.188147 43.453772 133.188147 0.000000 0.000000 1.000000 1.000000 1.000000
174 1 29.457278 9.588468 29.457278 9.588468 -0.000000 -0.000000 1.000000 1.000000 1.000000
175 1 17.688583 69.491106 17.688583 69.491106 -0.000000 -0.000000 1.000000 1.000000 1.000000
176 1 108.533308 86.085531 108.533308 86.085531 0.000000 0.000000 1.000000 1.000000 1.000000
177 1 97.570544 111.203321 97.570544 111.203321 0.000000 0.000000 1.000000 1.000000 1.000000
178 1 29.281360 107.084358 29.281360 107.084358 -0.000000 0.000000 1.000000 1.000000 1.000000
179 1 54.031031 131.487940 54.031031 131.487940 -0.000000 0.000000 1.000000 1.000000 1.000000
180 1 62.408835 69.002941 62.408835 69.002941 -0.000000 -0.000000 1.000000 1.000000 1.000000
181 1 227.116921 89.358920 227.116921 89.358920 -0.000000 -0.000000 1.000000 1.000000 1.000000
182 1 210.680941 63.879932 210.680941 63.879932 -0.000000 0.000000 1.000000 1.000000 1.000000
183 1 23.608835 26.971228 23.608835 26.971228 0.000000 -0.000000 1.000000 1.000000 1.000000
184 1 145.171479 19.615903 145.171479 19.615903 0.000000 0.000000 1.000000 1.000000 1.000000
185 1 93.102643 220.552213 93.102643 220.552213 -0.000000 0.000000 1.000000 1.000000 1.000000
186 1 48.746220 53.797573 48.746220 53.797573 0.000000 0.000000 1.000000 1.000000 1.000000
187 1 139.699443 77.626744 139.699443 77.626744 -0.000000 -0.000000 1.000000 1.000000 1.000000
188 1 136.548910 28.260471 136.548910 28.260471 -0.000000 0.000000 1.000000 1.000000 1.000000
189 1 106.607332 112.364574 106.607332 112.364574 0.000000 0.000000 1.000000 1.000000 1.000000
190 1 49.585935 128.834431 49.585935 128.834431 0.000000 -0.000000 1.000000 1.000000 1.000000
191 1 194.230520 29.279111 194.230520 29.279111 -0.000000 0.000000 1.000000 1.000000 1.000000
192 1 205.874032 31.378832 205.874032 31.378832 -0.000000 0.000000 1.000000 1.000000 1.000000
193 1 208.356065 69.844115 208.356065 69.844115 0.000000 0.000000 1.000000 1.000000 1.000000
194 1 68.174220 228.975895 68.174220 228.975895 -0.000001 -0.000000 1.000000 1.000000 1.000000
195 1 216.102921 58.370414 216.102921 58.370414 0.000000 -0.000000 1.000000 1.000000 1.000000
196 1 111.604660 114.001516 111.604660 114.001516 -0.000000 -0.000000 1.000000 1.000000 1.000000
197 1 146.848713 138.180058 146.848713 138.180058 -0.000000 -0.000000 1.000000 1.000000 1.000000
198 1 100.648386 153.561018 100.648386 153.561018 0.000000 -0.000000 1.000000 1.000000 1.000000
199 1 59.921955 94.173211 59.921955 94.173211 0.000000 0.000000 1.000000 1.000000 1.000000
200 1 183.117861 224.907090 183.117861 224.907090 0.000000 0.000000 1.000000 1.000000 1.000000
201 1 101.468640 120.050259 101.468640 120.050259 0.000000 -0.000000 1.000000 1.000000 1.000000
202 1 238.307976 136.481149 -1.019543 136.481149 0.000000 0.000000 1.000000 1.000000 1.000000
203 1 225.253435 82.724437 225.253435 82.724437 -0.000000 -0.000000 1.000000 1.000000 1.000000
204 1 197.378082 229.061416 197.378082 -10.266103 -0.000000 -0.000000 1.000000 1.000000 1.000000
205 1 226.988263 159.522775 226.988263 159.522775 0.000000 -0.000000 1.000000 1.000000 1.000000
206 1 57.650578 153.700730 57.650578 153.700730 -0.000000 -0.000000 1.000000 1.000000 1.000000
207 1 200.999688 1.328785 200.999688 1.328785 0.000000 -0.000000 1.000000 1.000000 1.000000
208 1 109.018322 121.365325 109.018322 121.365325 0.000000 0.000000 1.000000 1.000000 1.000000
209 1 1.071912 152.666897 1.071912 152.666897 -0.000000 -0.000000 1.000000 1.000000 1.000000
210 1 148.287808 78.464223 148.287808 78.464223 -0.000000 0.000000 1.000000 1.000000 1.000000
211 1 30.018512 138.694022 30.018512 138.694022 -0.000000 0.000000 1.000000 1.000000 1.000000
212 1 209.802226 89.314183 209.802226 89.314183 0.000000 -0.000000 1.000000 1.000000 1.000000
213 1 15.590536 1.832112 15.590536 241.159631 -0.000000 -0.000000 1.000000 1.000000 1.000000
214 1 79.379250 69.064563 79.379250 69.064563 -0.000000 0.000000 1.000000 1.000000 1.000000
215 1 199.033214 164.491125 199.033214 164.491125 0.000000 0.000000 1.000000 1.000000 1.000000
216 1 87.742036 96.278571 87.742036 96.278571 -0.000000 0.000000 1.000000 1.000000 1.000000
217 1 140.085868 206.051643 140.085868 206.051643 -0.000000 -0.000000 1.000000 1.000000 1.000000
218 1 89.480038 103.392009 89.480038 103.392009 -0.000000 0.000000 1.000000 1.000000 1.000000
219 1 199.801437 118.668853 199.801437 118.668853 -0.000000 0.000000 1.000000 1.000000 1.000000
220 1 237.623269 51.692107 237.623269 51.692107 -0.000000 0.000000 1.000000 1.000000 1.000000
221 1 222.938641 154.734833 -16.388878 154.734833 0.000000 -0.000000 1.000000 1.000000 1.000000
222 1 192.534729 235.657063 192.534729 235.657063 -0.000000 0.000000 1.000000 1.000000 1.000000
223 1 56.128266 90.136164 56.128266 90.136164 -0.000000 -0.000000 1.000000 1.000000 1.000000
224 1 35.386031 8.697233 35.386031 248.024752 -0.000000 -0.000000 1.000000 1.000000 1.000000
225 1 75.297882 138.480100 75.297882 138.480100 -0.000000 -0.000000 1.000000 1.000000 1.000000
226 1 203.584599 225.503766 203.584599 225.503766 0.000000 -0.000000 1.000000 1.000000 1.000000
227 1 117.050754 62.396411 117.050754 62.396411 -0.000000 0.000000 1.000000 1.000000 1.000000
228 1 222.569036 39.990361 222.569036 39.990361 -0.000000 -0.000000 1.000000 1.000000 1.000000
229 1 207.523206 169.879666 207.523206 169.879666 -0.000000 0.000000 1.000000 1.000000 1.000000
230 1 128.396726 115.387279 128.396726 115.387279 -0.000000 -0.000000 1.000000 1.000000 1.000000
231 1 48.299454 96.681305 48.299454 96.681305 0.000000 -0.000000 1.000000 1.000000 1.000000
232 1 20.829938 169.960274 20.829938 169.960274 -0.000000 0.000000 1.000000 1.000000 1.000000
233 1 21.379463 102.379476 21.379463 102.379476 -0.000000 -0.000000 1.000000 1.000000 1.000000
234 1 60.445505 206.254258 60.445505 206.254258 -0.000000 0.000000 1.000000 1.000000 1.000000
235 1 83.147557 212.310989 83.147557 212.310989 -0.000000 0.000000 1.000000 1.000000 1.000000
236 1 211.853874 199.583782 -27.473645 199.583782 0.000000 0.000000 1.000000 1.000000 1.000000
237 1 90.158784 82.737864 90.158784 82.737864 0.000000 0.000000 1.000000 1.000000 1.000000
238 1 122.856005 200.376107 122.856005 200.376107 -0.000000 0.000000 1.000000 1.000000 1.000000
239 1 9.148883 64.209802 248.476402 64.209802 0.000000 0.000000 1.000000 1.000000 1.000000
240 1 56.413561 125.709787 56.413561 125.709787 0.000000 0.000000 1.000000 1.000000 1.000000
241 1 132.648261 15.735464 132.648261 255.062983 0.000000 -0.000000 1.000000 1.000000 1.000000
242 1 114.298894 34.971776 114.298894 34.971776 -0.000000 0.000000 1.000000 1.000000 1.000000
243 1 119.526432 215.966346 119.526432 215.966346 -0.000000 -0.000000 1.000000 1.000000 1.000000
244 1 158.208902 232.772019 158.208902 232.772019 -0.000000 0.000000 1.000000 1.000000 1.000000
245 1 106.580963 16.656830 106.580963 16.656830 0.000000 -0.000000 1.000000 1.000000 1.000000
246 1 45.518086 200.677816 45.518086 200.677816 -0.000000 -0.000000 1.000000 1.000000 1.000000
247 1 118.773970 146.963518 118.773970 146.963518 -0.000000 -0.000000 1.000000 1.000000 1.000000
248 1 29.325210 47.807652 268.652729 47.807652 0.000000 0.000000 1.000000 1.000000 1.000000
249 1 97.256635 69.981265 97.256635 69.981265 -0.000000 -0.000000 1.000000 1.000000 1.000000
250 1 134.197956 12.404459 134.197956 12.404459 0.000000 -0.000000 1.000000 1.000000 1.000000
251 1 167.764755 19.495920 167.764755 19.495920 -0.000000 -0.000000 1.000000 1.000000 1.000000
252 1 152.796518 149.053541 152.796518 149.053541 -0.000000 -0.000000 1.000000 1.000000 1.000000
253 1 87.432986 34.317100 87.432986 34.317100 0.000000 -0.000000 1.000000 1.000000 1.000000
254 1 189.518544 210.716070 189.518544 210.716070 0.000000 -0.000000 1.000000 1.000000 1.000000
255 1 191.317868 32.723466 191.317868 32.723466 0.000000 0.000000 1.000000 1.000000 1.000000
256 1 151.033803 165.152097 151.033803 165.152097 -0.000000 0.000000 1.000000 1.000000 1.000000
257 1 109.928354 33.263894 109.928354 33.263894 0.000000 -0.000000 1.000000 1.000000 1.000000
258 1 231.890094 224.138784 231.890094 224.138784 0.000000 -0.000000 1.000000 1.000000 1.000000
259 1 11.056524 223.904059 11.056524 223.904059 -0.000000 -0.000000 1.000000 1.000000 1.000000
260 1 119.901234 198.542477 119.901234 198.542477 0.000000 0.000000 1.000000 1.000000 1.000000
261 1 71.486451 225.007003 71.486451 225.007003 -0.000001 -0.000000 1.000000 1.000000 1.000000
262 1 45.558143 77.904869 45.558143 77.904869 -0.000000 -0.000000 1.000000 1.000000 1.000000
263 1 212.626910 62.808746 212.626910 62.808746 0.000000 0.000000 1.000000 1.000000 1.000000
264 1 225.757486 114.715978 -13.570033 114.715978 0.000000 -0.000000 1.000000 1.000000 1.000000
265 1 59.436839 28.725066 59.436839 28.725066 -0.000000 -0.000000 1.000000 1.000000 1.000000
266 1 33.423736 108.977801 33.423736 108.977801 0.000000 -0.000000 1.000000 1.000000 1.000000
267 1 159.967795 205.171197 159.967795 205.171197 -0.000000 0.000000 1.000000 1.000000 1.000000
268 1 53.297087 228.479295 53.297087 -10.848224 0.000000 -0.000000 1.000000 1.000000 1.000000
269 1 97.444421 37.989813 97.444421 37.989813 0.000000 -0.000000 1.000000 1.000000 1.000000
270 1 216.624689 225.864604 216.624689 225.864604 -0.000000 0.000000 1.000000 1.000000 1.000000
271 1 183.128329 97.528506 183.128329 97.528506 -0.000000 -0.000000 1.000000 1.000000 1.000000
272 1 43.419714 22.149680 43.419714 22.149680 0.000000 -0.000000 1.000000 1.000000 1.000000
273 1 70.196031 0.261826 70.196031 0.261826 0.000000 -0.000000 1.000000 1.000000 1.000000
274 1 237.870855 7.627002 -1.456664 7.627002 0.000001 0.000000 1.000000 1.000000 1.000000
275 1 193.082618 103.866283 193.082618 103.866283 0.000000 0.000000 1.000000 1.000000 1.000000
276 1 43.673341 50.405104 43.673341 50.405104 0.000000 0.000000 1.000000 1.000000 1.000000
277 1 89.319258 216.113417 89.319258 216.113417 0.000000 -0.000000 1.000000 1.000000 1.000000
278 1 209.326227 175.144099 209.326227 175.144099 0.000000 0.000000 1.000000 1.000000 1.000000
279 1 225.928676 203.699179 -13.398843 203.699179 -0.000000 -0.000000 1.000000 1.000000 1.000000
280 1 37.579254 108.284970 37.579254 108.284970 0.000000 -0.000000 1.000000 1.000000 1.000000
281 1 91.410399 39.932634 91.410399 39.932634 0.000000 0.000000 1.000000 1.000000 1.000000
282 1 193.407765 34.454637 193.407765 34.454637 0.000000 -0.000000 1.000000 1.000000 1.000000
283 1 11.851528 5.825392 11.851528 5.825392 0.000001 0.000001 1.000000 1.000000 1.000000
284 1 149.820173 161.616870 149.820173 161.616870 -0.000000 0.000000 1.000000 1.000000 1.000000
285 1 237.354066 206.745164 -1.973453 206.745164 -0.000000 0.000000 1.000000 1.000000 1.000000
286 1 46.694641 223.277656 46.694641 223.277656 -0.000000 -0.000000 1.000000 1.000000 1.000000
287 1 20.673820 217.378612 20.673820 217.378612 -0.000000 0.000000 1.000000 1.000000 1.000000
288 1 102.458701 200.873810 102.458701 200.873810 0.000000 -0.000000 1.000000 1.000000 1.000000
289 1 137.451476 147.092445 137.451476 147.092445 0.000000 0.000000 1.000000 1.000000 1.000000
290 1 155.475501 156.171668 155.475501 156.171668 -0.000000 0.000000 1.000000 1.000000 1.000000
291 1 27.957645 229.409923 27.957645 -9.917596 -0.000000 -0.000000 1.000000 1.000000 1.000000
292 1 113.039213 17.586015 113.039213 17.586015 0.000000 0.000000 1.000000 1.000000 1.000000
293 1 182.250130 32.415800 182.250130 32.415800 0.000000 -0.000000 1.000000 1.000000 1.000000
294 1 155.805358 63.681875 155.805358 63.681875 -0.000000 0.000000 1.000000 1.000000 1.000000
295 1 60.098069 173.748765 60.098069 173.748765 -0.000000 0.000000 1.000000 1.000000 1.000000
296 1 211.699469 6.955158 211.699469 6.955158 -0.000000 0.000000 1.000000 1.000000 1.000000
297 1 156.894293 201.587149 156.894293 201.587149 -0.000000 -0.000000 1.000000 1.000000 1.000000
298 1 124.002381 51.684542 124.002381 51.684542 -0.000000 0.000000 1.000000 1.000000 1.000000
299 1 138.435532 197.629450 138.435532 197.629450 0.000000 0.000000 1.000000 1.000000 1.000000
300 1 140.435169 217.576610 140.435169 217.576610 0.000000 -0.000000 1.000000 1.000000 1.000000
301 1 232.860078 205.858627 232.860078 205.858627 0.000000 -0.000000 1.000000 1.000000 1.000000
302 1 83.731753 149.683023 83.731753 149.683023 0.000000 -0.000000 1.000000 1.000000 1.000000
303 1 152.858040 21.678212 152.858040 21.678212 -0.000000 -0.000000 1.000000 1.000000 1.000000
304 1 119.266863 50.550247 119.266863 50.550247 0.000000 0.000000 1.000000 1.000000 1.000000
305 1 11.749796 170.995180 11.749796 170.995180 0.000000 0.000000 1.000000 1.000000 1.000000
306 1 63.276471 52.276552 63.276471 52.276552 -0.000000 -0.000000 1.000000 1.000000 1.000000
307 1 111.800800 181.234753 111.800800 181.234753 0.000000 0.000000 1.000000 1.000000 1.000000
308 1 59.508896 25.758378 59.508896 25.758378 -0.000000 -0.000000 1.000000 1.000000 1.000000
309 1 182.822118 193.106852 182.822118 193.106852 -0.000000 -0.000000 1.000000 1.000000 1.000000
310 1 231.073482 130.527487 231.073482 130.527487 0.000000 -0.000000 1.000000 1.000000 1.000000
311 1 156.491163 36.678998 156.491163 36.678998 -0.000000 0.000000 1.000000 1.000000 1.000000
312 1 84.440534 10.109237 84.440534 10.109237 0.000000 0.000000 1.000000 1.000000 1.000000
313 1 185.518288 99.925495 185.518288 99.925495 -0.000000 -0.000000 1.000000 1.000000 1.000000
314 1 200.610013 67.749650 200.610013 67.749650 0.000000 0.000000 1.000000 1.000000 1.000000
315 1 37.109204 182.617018 37.109204 182.617018 0.000000 0.000000 1.000000 1.000000 1.000000
316 1 37.149910 20.920512 37.149910 20.920512 0.000000 -0.000000 1.000000 1.000000 1.000000