ITEM: TIMESTEP
1600.000000
ITEM: NUMBER OF ATOMS
5000
ITEM: BOX BOUNDS xy xz yz
0 209.149937 0
0 209.149937 0
0 2 0
ITEM: ATOMS id type x y xu yu vx vy radius m z
0 1 96.801465 83.902122 96.801465 83.902122 0.000000 -0.000000 1.000000 1.000000 1.000000
1 1 173.589538 163.898905 173.589538 163.898905 0.000000 -0.000000 1.000000 1.000000 1.000000
2 1 196.612413 201.057609 196.612413 -8.092328 0.000000 -0.000000 1.000000 1.000000 1.000000
3 1 132.759452 11.502173 132.759452 11.502173 -0.000000 0.000000 1.000000 1.000000 1.000000
4 1 136.485497 0.718664 136.485497 0.718664 -0.000000 -0.000000 1.000000 1.000000 1.000000
5 1 190.878845 189.415729 190.878845 189.415729 -0.000000 0.000000 1.000000 1.000000 1.000000
6 1 169.148056 71.010788 169.148056 71.010788 0.000000 -0.000000 1.000000 1.000000 1.000000
7 1 134.275975 112.268009 134.275975 112.268009 -0.000000 -0.000000 1.000000 1.000000 1.000000
8 1 96.893565 16.947791 96.893565 16.947791 -0.000000 0.000000 1.000000 1.000000 1.000000
9 1 134.995812 68.842976 134.995812 68.842976 -0.000000 0.000000 1.000000 1.000000 1.000000
10 1 183.457479 75.372221 183.457479 75.372221 0.000000 -0.000000 1.000000 1.000000 1.000000
11 1 123.333171 83.666679 123.333171 83.666679 0.000000 0.000000 1.000000 1.000000 1.000000
12 1 94.662010 141.089645 94.662010 141.089645 -0.000000 -0.000000 1.000000 1.000000 1.000000
13 1 63.633938 65.708923 63.633938 65.708923 -0.000000 -0.000000 1.000000 1.000000 1.000000
14 1 167.627778 163.808497 167.627778 163.808497 0.000000 -0.000000 1.000000 1.000000 1.000000
15 1 42.388270 5.085968 42.388270 5.085968 -0.000000 -0.000000 1.000000 1.000000 1.000000
16 1 18.169209 200.297938 18.169209 200.297938 -0.000000 0.000000 1.000000 1.000000 1.000000
17 1 197.960656 172.507861 197.960656 172.507861 0.000000 0.000000 1.000000 1.000000 1.000000
18 1 137.769121 15.625745 137.769121 15.625745 0.000000 -0.000000 1.000000 1.000000 1.000000
19 1 51.569817 14.565637 51.569817 14.565637 0.000000 0.000000 1.000000 1.000000 1.000000
20 1 47.398837 106.123498 47.398837 106.123498 -0.000000 -0.000000 1.000000 1.000000 1.000000
21 1 33.245655 164.098039 33.245655 164.098039 0.000000 -0.000000 1.000000 1.000000 1.000000
22 1 109.397971 56.892591 109.397971 56.892591 0.000000 0.000000 1.000000 1.000000 1.000000
23 1 113.943209 70.658136 113.943209 70.658136 0.000000 -0.000000 1.000000 1.000000 1.000000
24 1 162.770567 9.381043 162.770567 9.381043 0.000000 -0.000000 1.000000 1.000000 1.000000
25 1 139.705056 159.248231 139.705056 159.248231 0.000000 0.000000 1.000000 1.000000 1.000000
26 1 33.060816 11.721787 33.060816 11.721787 0.000000 0.000000 1.000000 1.000000 1.000000
27 1 180.500073 41.696067 180.500073 41.696067 0.000000 0.000000 1.000000 1.000000 1.000000
28 1 35.101654 107.574485 35.101654 107.574485 -0.000000 0.000000 1.000000 1.000000 1.000000
29 1 87.939580 202.941378 87.939580 -6.208559 -0.000000 0.000000 1.000000 1.000000 1.000000
30 1 204.404233 53.598336 -4.745704 53.598336 0.000000 0.000000 1.000000 1.000000 1.000000
31 1 4.240700 196.177289 213.390637 196.177289 -0.000000 -0.000000 1.000000 1.000000 1.000000
32 1 169.751090 73.172813 169.751090 73.172813 0.000000 0.000000 1.000000 1.000000 1.000000
33 1 87.770768 70.817118 87.770768 70.817118 -0.000000 -0.000000 1.000000 1.000000 1.000000
34 1 4.390914 186.043049 4.390914 186.043049 0.000000 0.000000 1.000000 1.000000 1.000000
35 1 26.736111 150.360653 26.736111 150.360653 0.000000 0.000000 1.000000 1.000000 1.000000
36 1 171.238853 30.340475 171.238853 30.340475 0.000000 0.000000 1.000000 1.000000 1.000000
37 1 44.848884 47.812258 44.848884 47.812258 0.000000 -0.000000 1.000000 1.000000 1.000000
38 1 126.448259 136.699589 126.448259 136.699589 -0.000000 0.000000 1.000000 1.000000 1.000000
39 1 69.972725 142.900061 69.972725 142.900061 -0.000000 0.000000 1.000000 1.000000 1.000000
40 1 208.673332 200.621880 -0.476605 200.621880 0.000000 0.000000 1.000000 1.000000 1.000000
41 1 99.940127 77.440729 99.940127 77.440729 0.000000 0.000000 1.000000 1.000000 1.000000
42 1 207.602066 171.327196 -1.547871 171.327196 0.000000 -0.000000 1.000000 1.000000 1.000000
43 1 194.978049 145.441983 194.978049 145.441983 -0.000000 0.000000 1.000000 1.000000 1.000000
44 1 140.443258 146.414613 140.443258 146.414613 0.000000 0.000000 1.000000 1.000000 1.000000
45 1 1.791544 91.178703 1.791544 91.178703 -0.000000 0.000000 1.000000 1.000000 1.000000
46 1 155.726275 143.300990 155.726275 143.300990 -0.000000 -0.000000 1.000000 1.000000 1.000000
47 1 208.022250 183.645793 208.022250 183.645793 -0.000000 0.000000 1.000000 1.000000 1.000000
48 1 50.773722 126.574496 50.773722 126.574496 -0.000000 -0.000000 1.000000 1.000000 1.000000
49 1 100.273049 106.915998 100.273049 106.915998 0.000000 -0.000000 1.000000 1.000000 1.000000
50 1 160.663373 47.173459 160.663373 47.173459 -0.000000 0.000000 1.000000 1.000000 1.000000
51 1 164.725265 95.260614 164.725265 95.260614 0.000000 -0.000000 1.000000 1.000000 1.000000
52 1 205.997119 77.332757 205.997119 77.332757 -0.000000 -0.000000 1.000000 1.000000 1.000000
53 1 192.867730 133.781064 192.867730 133.781064 0.000000 0.000000 1.000000 1.000000 1.000000
54 1 104.123515 49.302332 104.123515 49.302332 -0.000000 -0.000000 1.000000 1.000000 1.000000
55 1 180.223395 77.418951 180.223395 77.418951 -0.000000 -0.000000 1.000000 1.000000 1.000000
56 1 148.754400 192.222454 148.754400 192.222454 0.000000 0.000000 1.000000 1.000000 1.000000
57 1 40.190086 47.985537 40.190086 47.985537 -0.000000 0.000000 1.000000 1.000000 1.000000
58 1 92.585090 45.401073 92.585090 45.401073 0.000000 -0.000000 1.000000 1.000000 1.000000
59 1 207.412283 35.669867 207.412283 35.669867 -0.000000 0.000000 1.000000 1.000000 1.000000
60 1 174.843402 187.178969 174.843402 187.178969 0.000000 0.000000 1.000000 1.000000 1.000000
61 1 63.506589 171.773254 63.506589 171.773254 -0.000000 0.000000 1.000000 1.000000 1.000000
62 1 50.910735 130.616249 50.910735 130.616249 -0.000000 0.000000 1.000000 1.000000 1.000000
63 1 16.064038 193.324566 16.064038 193.324566 -0.000000 -0.000000 1.000000 1.000000 1.000000
64 1 186.888942 36.536129 186.888942 36.536129 -0.000000 0.000000 1.000000 1.000000 1.000000
65 1 149.406727 164.310316 149.406727 164.310316 -0.000000 0.000000 1.000000 1.000000 1.000000
66 1 133.494459 204.081230 133.494459 204.081230 0.000000 0.000000 1.000000 1.000000 1.000000
67 1 12.655321 25.989981 12.655321 25.989981 0.000000 0.000000 1.000000 1.000000 1.000000
68 1 33.487442 157.727003 33.487442 157.727003 -0.000000 -0.000000 1.000000 1.000000 1.000000
69 1 165.442211 46.515977 165.442211 46.515977 -0.000000 -0.000000 1.000000 1.000000 1.000000
70 1 108.981070 185.653179 108.981070 185.653179 -0.000000 0.000000 1.000000 1.000000 1.000000
71 1 60.006280 60.844772 60.006280 60.844772 -0.000000 0.000000 1.000000 1.000000 1.000000
72 1 106.265045 128.053251 106.265045 128.053251 0.000000 -0.000000 1.000000 1.000000 1.000000
73 1 194.763329 107.811491 194.763329 107.811491 -0.000000 0.000000 1.000000 1.000000 1.000000
74 1 65.173979 99.302540 65.173979 99.302540 0.000000 -0.000000 1.000000 1.000000 1.000000
75 1 75.818148 79.228982 75.818148 79.228982 0.000000 -0.000000 1.000000 1.000000 1.000000
76 1 92.693074 76.623535 92.693074 76.623535 -0.000000 0.000000 1.000000 1.000000 1.000000
77 1 168.338307 5.105088 168.338307 5.105088 -0.000000 0.000000 1.000000 1.000000 1.000000
78 1 2.096988 143.816006 2.096988 143.816006 -0.000000 0.000000 1.000000 1.000000 1.000000
79 1 27.288542 61.681744 27.288542 61.681744 -0.000000 -0.000000 1.000000 1.000000 1.000000
80 1 41.343888 120.018737 41.343888 120.018737 -0.000000 -0.000000 1.000000 1.000000 1.000000
81 1 29.816434 192.785594 29.816434 192.785594 0.000000 0.000000 1.000000 1.000000 1.000000
82 1 181.295342 45.133331 181.295342 45.133331 -0.000000 -0.000000 1.000000 1.000000 1.000000
83 1 70.759759 130.524988 70.759759 130.524988 -0.000000 -0.000000 1.000000 1.000000 1.000000
84 1 43.036508 66.816880 43.036508 66.816880 -0.000000 0.000000 1.000000 1.000000 1.000000
85 1 44.117987 112.091716 44.117987 112.091716 -0.000000 -0.000000 1.000000 1.000000 1.000000
86 1 147.778079 52.209112 147.778079 52.209112 -0.000000 -0.000000 1.000000 1.000000 1.000000
87 1 80.686005 154.081729 80.686005 154.081729 0.000000 0.000000 1.000000 1.000000 1.000000
88 1 192.466067 150.318724 192.466067 150.318724 0.000000 -0.000000 1.000000 1.000000 1.000000
89 1 170.506713 123.204213 170.506713 123.204213 0.000000 -0.000000 1.000000 1.000000 1.000000
90 1 93.324831 29.333267 93.324831 29.333267 0.000000 0.000000 1.000000 1.000000 1.000000
91 1 181.052097 201.826390 181.052097 201.826390 0.000000 -0.000000 1.000000 1.000000 1.000000
92 1 91.090158 38.921452 91.090158 38.921452 -0.000000 -0.000000 1.000000 1.000000 1.000000
93 1 131.681551 37.561011 131.681551 37.561011 0.000000 -0.000000 1.000000 1.000000 1.000000
94 1 148.718201 129.556207 148.718201 129.556207 -0.000000 -0.000000 1.000000 1.000000 1.000000
95 1 36.675303 116.386531 36.675303 116.386531 0.000000 0.000000 1.000000 1.000000 1.000000
96 1 86.241369 48.442634 86.241369 48.442634 -0.000000 -0.000000 1.000000 1.000000 1.000000
97 1 116.513516 91.576884 116.513516 91.576884 0.000000 0.000000 1.000000 1.000000 1.000000
98 1 13.813847 182.353457 13.813847 182.353457 -0.000000 -0.000000 1.000000 1.000000 1.000000
99 1 100.632826 17.099734 100.632826 17.099734 -0.000000 0.000000 1.000000 1.000000 1.000000
100 1 30.563319 69.600077 30.563319 69.600077 0.000000 0.000000 1.000000 1.000000 1.000000
101 1 13.389653 126.175871 13.389653 126.175871 0.000000 0.000000 1.000000 1.000000 1.000000
102 1 20.236202 14.709039 20.236202 14.709039 -0.000000 -0.000000 1.000000 1.000000 1.000000
103 1 162.973897 126.355392 162.973897 126.355392 0.000000 -0.000000 1.000000 1.000000 1.000000
104 1 61.114515 207.446383 61.114515 207.446383 0.000000 0.000000 1.000000 1.000000 1.000000
105 1 104.521548 67.245634 104.521548 67.245634 0.000000 0.000000 1.000000 1.000000 1.000000
106 1 86.524945 44.080653 86.524945 44.080653 -0.000000 -0.000000 1.000000 1.000000 1.000000
107 1 182.327995 69.036090 182.327995 69.036090 0.000000 -0.000000 1.000000 1.000000 1.000000
108 1 86.395900 137.513061 86.395900 137.513061 -0.000000 0.000000 1.000000 1.000000 1.000000
109 1 202.603647 33.355101 202.603647 33.355101 0.000000 -0.000000 1.000000 1.000000 1.000000
110 1 15.142055 47.748906 15.142055 47.748906 0.000000 0.000000 1.000000 1.000000 1.000000
111 1 132.997961 103.665252 132.997961 103.665252 -0.000000 -0.000000 1.000000 1.000000 1.000000
112 1 180.613170 174.792778 180.613170 174.792778 -0.000000 -0.000000 1.000000 1.000000 1.000000
113 1 148.661256 120.636483 148.661256 120.636483 0.000000 -0.000000 1.000000 1.000000 1.000000
114 1 189.458660 33.570038 189.458660 33.570038 -0.000000 -0.000000 1.000000 1.000000 1.000000
115 1 105.513974 22.477128 105.513974 22.477128 -0.000000 -0.000000 1.000000 1.000000 1.000000
116 1 9.587992 36.807050 218.737929 36.807050 -0.000000 -0.000000 1.000000 1.000000 1.000000
117 1 13.017561 9.653743 13.017561 9.653743 0.000000 -0.000000 1.000000 1.000000 1.000000
118 1 156.900440 164.938781 156.900440 164.938781 -0.000000 0.000000 1.000000 1.000000 1.000000
119 1 65.659541 104.989071 65.659541 104.989071 -0.000000 0.000000 1.000000 1.000000 1.000000
120 1 23.256122 35.903428 23.256122 35.903428 0.000000 0.000000 1.000000 1.000000 1.000000
121 1 107.211950 63.694742 107.211950 63.694742 0.000000 0.000000 1.000000 1.000000 1.000000
122 1 2.971846 170.778103 212.121783 170.778103 -0.000000 0.000000 1.000000 1.000000 1.000000
123 1 79.667266 149.923076 79.667266 149.923076 0.000000 0.000000 1.000000 1.000000 1.000000
124 1 11.549715 125.291340 11.549715 125.291340 0.000000 -0.000000 1.000000 1.000000 1.000000
125 1 183.979334 143.156568 183.979334 143.156568 0.000000 -0.000000 1.000000 1.000000 1.000000
126 1 50.332364 143.819083 50.332364 143.819083 0.000000 -0.000000 1.000000 1.000000 1.000000
127 1 87.474429 56.347945 87.474429 56.347945 -0.000000 0.000000 1.000000 1.000000 1.000000
128 1 140.058852 162.019779 140.058852 162.019779 -0.000000 0.000000 1.000000 1.000000 1.000000
129 1 101.667584 83.424011 101.667584 83.424011 0.000000 0.000000 1.000000 1.000000 1.000000
130 1 52.809833 59.463933 52.809833 59.463933 0.000000 -0.000000 1.000000 1.000000 1.000000
131 1 71.816285 97.076230 71.816285 97.076230 -0.000000 -0.000000 1.000000 1.000000 1.000000
132 1 95.220553 203.945156 95.220553 203.945156 0.000000 0.000000 1.000000 1.000000 1.000000
133 1 194.164771 96.919795 194.164771 96.919795 -0.000000 0.000000 1.000000 1.000000 1.000000
134 1 64.821601 35.273152 64.821601 35.273152 -0.000000 0.000000 1.000000 1.000000 1.000000
135 1 0.472465 61.710043 209.622402 61.710043 -0.000000 0.000000 1.000000 1.000000 1.000000
136 1 146.428838 21.926928 146.428838 21.926928 -0.000000 -0.000000 1.000000 1.000000 1.000000
137 1 81.594748 86.021981 81.594748 86.021981 -0.000000 0.000000 1.000000 1.000000 1.000000
138 1 40.736741 51.216190 40.736741 51.216190 -0.000000 -0.000000 1.000000 1.000000 1.000000
139 1 5.922004 19.320442 5.922004 19.320442 0.000000 0.000000 1.000000 1.000000 1.000000
140 1 99.261527 34.294805 99.261527 34.294805 -0.000000 -0.000000 1.000000 1.000000 1.000000
141 1 198.448256 5.776259 198.448256 214.926196 0.000000 -0.000000 1.000000 1.000000 1.000000
142 1 5.818468 27.339316 5.818468 27.339316 0.000000 0.000000 1.000000 1.000000 1.000000
143 1 154.970497 148.904317 154.970497 148.904317 0.000000 -0.000000 1.000000 1.000000 1.000000
144 1 143.374272 175.653293 143.374272 175.653293 -0.000000 -0.000000 1.000000 1.000000 1.000000
145 1 193.237312 18.323453 193.237312 18.323453 -0.000000 -0.000000 1.000000 1.000000 1.000000
146 1 130.535775 57.572156 130.535775 57.572156 0.000000 -0.000000 1.000000 1.000000 1.000000
147 1 22.163364 138.763055 22.163364 138.763055 0.000000 -0.000000 1.000000 1.000000 1.000000
148 1 29.844416 83.988165 29.844416 83.988165 -0.000000 -0.000000 1.000000 1.000000 1.000000
149 1 173.388963 139.912333 173.388963 139.912333 -0.000000 0.000000 1.000000 1.000000 1.000000
150 1 67.567866 28.384638 67.567866 28.384638 -0.000000 -0.000000 1.000000 1.000000 1.000000
151 1 197.349728 131.428481 197.349728 131.428481 -0.000000 0.000000 1.000000 1.000000 1.000000
152 1 76.379972 153.038720 76.379972 153.038720 -0.000000 -0.000000 1.000000 1.000000 1.000000
153 1 124.701460 154.859604 124.701460 154.859604 0.000000 0.000000 1.000000 1.000000 1.000000
154 1 6.935654 64.779945 6.935654 64.779945 0.000000 0.000000 1.000000 1.000000 1.000000
155 1 200.013143 125.306097 200.013143 125.306097 -0.000000 -0.000000 1.000000 1.000000 1.000000
156 1 8.327062 125.399371 8.327062 125.399371 0.000000 0.000000 1.000000 1.000000 1.000000
157 1 158.067013 192.153310 158.067013 192.153310 -0.000000 -0.000000 1.000000 1.000000 1.000000
158 1 30.188758 118.571849 30.188758 118.571849 -0.000000 -0.000000 1.000000 1.000000 1.000000
159 1 180.874320 157.247371 180.874320 157.247371 -0.000000 -0.000000 1.000000 1.000000 1.000000
160 1 55.268052 172.102782 55.268052 172.102782 0.000000 -0.000000 1.000000 1.000000 1.000000
161 1 119.194910 54.162389 119.194910 54.162389 -0.000000 -0.000000 1.000000 1.000000 1.000000
162 1 116.294832 15.718977 116.294832 15.718977 0.000000 0.000000 1.000000 1.000000 1.000000
163 1 119.881959 24.142385 119.881959 24.142385 -0.000000 0.000000 1.000000 1.000000 1.000000
164 1 108.375189 151.741752 108.375189 151.741752 -0.000000 0.000000 1.000000 1.000000 1.000000
165 1 100.103654 97.606579 100.103654 97.606579 0.000000 -0.000000 1.000000 1.000000 1.000000
166 1 99.981832 32.045982 99.981832 32.045982 -0.000000 -0.000000 1.000000 1.000000 1.000000
167 1 127.615053 116.927717 127.615053 116.927717 -0.000000 -0.000000 1.000000 1.000000 1.000000
168 1 16.168846 85.834421 16.168846 85.834421 0.000000 0.000000 1.000000 1.000000 1.000000
169 1 106.027524 139.526217 106.027524 139.526217 -0.000000 0.000000 1.000000 1.000000 1.000000
170 1 104.703920 4.445127 104.703920 4.445127 -0.000000 -0.000000 1.000000 1.000000 1.000000
171 1 165.532269 149.105682 165.532269 149.105682 -0.000000 -0.000000 1.000000 1.000000 1.000000
172 1 88.921793 188.797967 88.921793 188.797967 -0.000000 -0.000000 1.000000 1.000000 1.000000
173 1 137.602505 161.914593 137.602505 161.914593 0.000000 0.000000 1.000000 1.000000 1.000000
174 1 206.532483 147.043368 -2.617454 147.043368 -0.000000 -0.000000 1.000000 1.000000 1.000000
175 1 176.521436 20.335347 176.521436 20.335347 -0.000000 -0.000000 1.000000 1.000000 1.000000
176 1 151.922075 29.611370 151.922075 29.611370 -0.000000 0.000000 1.000000 1.000000 1.000000
177 1 118.487241 47.199966 118.487241 47.199966 -0.000000 0.000000 1.000000 1.000000 1.000000
178 1 76.812083 170.176089 76.812083 170.176089 0.000000 0.000000 1.000000 1.000000 1.000000
179 1 150.385504 186.165043 150.385504 186.165043 0.000000 -0.000000 1.000000 1.000000 1.000000
180 1 121.530523 47.725207 121.530523 47.725207 -0.000000 -0.000000 1.000000 1.000000 1.000000
181 1 83.919724 44.340548 83.919724 44.340548 0.000000 0.000000 1.000000 1.000000 1.000000
182 1 96.001125 100.293089 96.001125 100.293089 0.000000 -0.000000 1.000000 1.000000 1.000000
183 1 66.198715 155.641540 66.198715 155.641540 0.000000 -0.000000 1.000000 1.000000 1.000000
184 1 154.940329 156.146565 154.940329 156.146565 -0.000000 -0.000000 1.000000 1.000000 1.000000
185 1 157.702044 148.307289 157.702044 148.307289 0.000000 0.000000 1.000000 1.000000 1.000000
186 1 116.880616 163.244356 116.880616 163.244356 -0.000000 0.000000 1.000000 1.000000 1.000000
187 1 10.083295 26.211902 10.083295 26.211902 -0.000000 0.000000 1.000000 1.000000 1.000000
188 1 39.684353 196.741591 39.684353 196.741591 0.000000 -0.000000 1.000000 1.000000 1.000000
189 1 198.790477 176.052990 198.790477 176.052990 0.000000 -0.000000 1.000000 1.000000 1.000000
190 1 18.192194 6.749926 18.192194 6.749926 -0.000000 -0.000000 1.000000 1.000000 1.000000
191 1 133.548714 145.357560 133.548714 145.357560 -0.000000 0.000000 1.000000 1.000000 1.000000
192 1 183.564675 54.250184 183.564675 54.250184 0.000000 -0.000000 1.000000 1.000000 1.000000
193 1 167.282313 200.114807 167.282313 200.114807 -0.000000 0.000000 1.000000 1.000000 1.000000
194 1 24.072589 90.192216 24.072589 90.192216 -0.000000 -0.000000 1.000000 1.000000 1.000000
195 1 140.738911 175.856868 140.738911 175.856868 0.000000 -0.000000 1.000000 1.000000 1.000000
196 1 13.952998 40.869245 13.952998 40.869245 -0.000000 0.000000 1.000000 1.000000 1.000000
197 1 168.358346 119.684003 168.358346 119.684003 0.000000 -0.000000 1.000000 1.000000 1.000000
198 1 174.029516 39.963229 174.029516 39.963229 0.000000 0.000000 1.000000 1.000000 1.000000
199 1 169.927670 163.229952 169.927670 163.229952 -0.000000 -0.000000 1.000000 1.000000 1.000000
200 1 85.507941 10.767339 85.507941 10.767339 0.000000 -0.000000 1.000000 1.000000 1.000000
201 1 76.193525 155.908858 76.193525 155.908858 0.000000 -0.000000 1.000000 1.000000 1.000000
202 1 175.320383 170.155946 175.320383 170.155946 -0.000000 -0.000000 1.000000 1.000000 1.000000
203 1 24.198239 46.588191 24.198239 46.588191 -0.000000 -0.000000 1.000000 1.000000 1.000000
204 1 64.541172 78.322007 64.541172 78.322007 0.000000 0.000000 1.000000 1.000000 1.000000
205 1 179.369231 134.658642 179.369231 134.658642 -0.000000 0.000000 1.000000 1.000000 1.000000
206 1 106.858701 88.498686 106.858701 88.498686 0.000000 0.000000 1.000000 1.000000 1.000000
207 1 74.084613 5.085001 74.084613 5.085001 -0.000000 -0.000000 1.000000 1.000000 1.000000
208 1 172.010421 114.904956 172.010421 114.904956 -0.000000 0.000000 1.000000 1.000000 1.000000
209 1 148.204933 114.245136 148.204933 114.245136 -0.000000 0.000000 1.000000 1.000000 1.000000
210 1 112.547573 44.285989 112.547573 44.285989 0.000000 -0.000000 1.000000 1.000000 1.000000
211 1 114.939843 203.749022 114.939843 -5.400915 -0.000000 -0.000000 1.000000 1.000000 1.000000
212 1 176.477911 150.604861 176.477911 150.604861 -0.000000 0.000000 1.000000 1.000000 1.000000
213 1 167.017625 34.159430 167.017625 34.159430 -0.000000 -0.000000 1.000000 1.000000 1.000000
214 1 142.552108 201.078753 142.552108 201.078753 0.000000 0.000000 1.000000 1.000000 1.000000
215 1 79.856269 57.417847 79.856269 57.417847 -0.000000 0.000000 1.000000 1.000000 1.000000
216 1 176.730536 67.013791 176.730536 67.013791 -0.000000 0.000000 1.000000 1.000000 1.000000
217 1 23.981673 148.310498 23.981673 148.310498 0.000000 -0.000000 1.000000 1.000000 1.000000
218 1 24.759939 188.524501 24.759939 188.524501 0.000000 0.000000 1.000000 1.000000 1.000000
219 1 21.352214 111.519862 21.352214 111.519862 0.000000 -0.000000 1.000000 1.000000 1.000000
220 1 24.125499 154.557073 24.125499 154.557073 0.000000 0.000000 1.000000 1.000000 1.000000
221 1 116.437473 183.983546 116.437473 183.983546 -0.000000 0.000000 1.000000 1.000000 1.000000
222 1 12.211010 180.528189 12.211010 180.528189 -0.000000 -0.000000 1.000000 1.000000 1.000000
223 1 23.306020 62.228345 23.306020 62.228345 -0.000000 0.000000 1.000000 1.000000 1.000000
224 1 89.909732 1.591742 89.909732 1.591742 0.000000 0.000000 1.000000 1.000000 1.000000
225 1 19.744188 154.624961 19.744188 154.624961 -0.000000 -0.000000 1.000000 1.000000 1.000000
226 1 51.266008 160.098497 51.266008 160.098497 -0.000000 0.000000 1.000000 1.000000 1.000000
227 1 106.381511 32.072539 106.381511 32.072539 -0.000000 -0.000000 1.000000 1.000000 1.000000
228 1 5.470767 204.836957 214.620704 -4.312980 0.000000 -0.000000 1.000000 1.000000 1.000000
229 1 172.155747 187.522949 172.155747 187.522949 0.000000 -0.000000 1.000000 1.000000 1.000000
230 1 76.763233 116.887964 76.763233 116.887964 0.000000 -0.000000 1.000000 1.000000 1.000000
231 1 160.946570 35.698258 160.946570 35.698258 -0.000000 0.000000 1.000000 1.000000 1.000000
232 1 152.463015 140.974268 152.463015 140.974268 0.000000 -0.000000 1.000000 1.000000 1.000000
233 1 170.983140 102.891460 170.983140 102.891460 -0.000000 0.000000 1.000000 1.000000 1.000000
234 1 67.947296 131.413663 67.947296 131.413663 0.000000 0.000000 1.000000 1.000000 1.000000
235 1 7.438141 101.026165 216.588078 101.026165 0.000000 0.000000 1.000000 1.000000 1.000000
236 1 107.075158 170.178515 107.075158 170.178515 -0.000000 0.000000 1.000000 1.000000 1.000000
237 1 108.203003 175.627910 108.203003 175.627910 -0.000000 -0.000000 1.000000 1.000000 1.000000
238 1 118.849352 190.028999 118.849352 190.028999 -0.000000 0.000000 1.000000 1.000000 1.000000
239 1 25.253492 110.999913 25.253492 110.999913 -0.000000 0.000000 1.000000 1.000000 1.000000
240 1 71.970428 104.145496 71.970428 104.145496 0.000000 0.000000 1.000000 1.000000 1.000000
241 1 77.646853 143.209286 77.646853 143.209286 -0.000000 -0.000000 1.000000 1.000000 1.000000
242 1 28.335669 205.020461 28.335669 205.020461 -0.000000 0.000000 1.000000 1.000000 1.000000
243 1 74.750876 164.157584 74.750876 164.157584 0.000000 -0.000000 1.000000 1.000000 1.000000
244 1 135.386529 62.073067 135.386529 62.073067 -0.000000 -0.000000 1.000000 1.000000 1.000000
245 1 41.210041 175.832606 41.210041 175.832606 0.000000 -0.000000 1.000000 1.000000 1.000000
246 1 171.683791 196.529176 171.683791 196.529176 0.000000 -0.000000 1.000000 1.000000 1.000000
247 1 200.470491 182.030043 200.470491 182.030043 -0.000000 -0.000000 1.000000 1.000000 1.000000
248 1 15.490471 153.781369 15.490471 153.781369 0.000000 0.000000 1.000000 1.000000 1.000000
249 1 207.307584 111.567877 207.307584 111.567877 -0.000001 0.000000 1.000000 1.000000 1.000000
250 1 15.516539 31.893844 15.516539 31.893844 -0.000000 -0.000000 1.000000 1.000000 1.000000
251 1 86.298998 24.299097 86.298998 24.299097 -0.000000 0.000000 1.000000 1.000000 1.000000
252 1 35.744975 126.930271 35.744975 126.930271 -0.000000 -0.000000 1.000000 1.000000 1.000000
253 1 80.423412 1.478974 80.423412 1.478974 0.000000 -0.000000 1.000000 1.000000 1.000000
254 1 9.667705 185.069588 9.667705 185.069588 -0.000000 -0.000000 1.000000 1.000000 1.000000
255 1 86.484100 0.723014 86.484100 0.723014 0.000000 -0.000000 1.000000 1.000000 1.000000
256 1 152.917853 97.775320 152.917853 97.775320 -0.000000 0.000000 1.000000 1.000000 1.000000
257 1 117.164653 50.895346 117.164653 50.895346 -0.000000 0.000000 1.000000 1.000000 1.000000
258 1 0.523368 203.329539 209.673305 203.329539 0.000000 -0.000000 1.000000 1.000000 1.000000
259 1 129.566284 34.735428 129.566284 34.735428 -0.000000 0.000000 1.000000 1.000000 1.000000
260 1 24.540989 0.832139 24.540989 0.832139 -0.000000 0.000000 1.000000 1.000000 1.000000
261 1 92.129263 143.183759 92.129263 143.183759 -0.000000 0.000000 1.000000 1.000000 1.000000
262 1 20.084955 157.683509 20.084955 157.683509 -0.000000 -0.000000 1.000000 1.000000 1.000000
263 1 113.491490 99.937087 113.491490 99.937087 0.000000 -0.000000 1.000000 1.000000 1.000000
264 1 89.653200 41.245480 89.653200 41.245480 -0.000000 -0.000000 1.000000 1.000000 1.000000
265 1 138.562794 108.221991 138.562794 108.221991 -0.000000 -0.000000 1.000000 1.000000 1.000000
266 1 14.403489 83.329257 14.403489 83.329257 0.000000 -0.000000 1.000000 1.000000 1.000000
267 1 88.441194 47.644333 88.441194 47.644333 0.000000 -0.000000 1.000000 1.000000 1.000000
268 1 200.207590 51.517358 200.207590 51.517358 0.000000 0.000000 1.000000 1.000000 1.000000
269 1 172.476678 41.437081 172.476678 41.437081 0.000000 -0.000000 1.000000 1.000000 1.000000
270 1 94.493535 110.882199 94.493535 110.882199 -0.000000 -0.000000 1.000000 1.000000 1.000000
271 1 167.270165 128.534274 167.270165 128.534274 -0.000000 0.000000 1.000000 1.000000 1.000000
272 1 62.627624 105.483281 62.627624 105.483281 -0.000000 0.000000 1.000000 1.000000 1.000000
273 1 89.716761 183.951130 89.716761 183.951130 0.000000 0.000000 1.000000 1.000000 1.000000
274 1 92.200040 186.267233 92.200040 186.267233 0.000000 0.000000 1.000000 1.000000 1.000000
275 1 180.936859 167.741674 180.936859 167.741674 0.000000 -0.000000 1.000000 1.000000 1.000000
276 1 140.114367 9.541285 140.114367 9.541285 0.000000 -0.000000 1.000000 1.000000 1.000000
277 1 206.622886 109.592396 206.622886 109.592396 0.000000 0.000000 1.000000 1.000000 1.000000
278 1 163.391717 152.879751 163.391717 152.879751 0.000000 -0.000000 1.000000 1.000000 1.000000
279 1 122.700310 153.959608 122.700310 153.959608 -0.000000 -0.000000 1.000000 1.000000 1.000000
280 1 138.698458 51.180830 138.698458 51.180830 -0.000000 -0.000000 1.000000 1.000000 1.000000
281 1 115.907592 106.477554 115.907592 106.477554 0.000000 0.000000 1.000000 1.000000 1.000000
282 1 74.211821 174.086816 74.211821 174.086816 -0.000000 -0.000000 1.000000 1.000000 1.000000
283 1 154.795254 169.010861 154.795254 169.010861 0.000000 -0.000000 1.000000 1.000000 1.000000
284 1 175.259752 63.983014 175.259752 63.983014 -0.000000 -0.000000 1.000000 1.000000 1.000000
285 1 102.298149 5.787246 102.298149 5.787246 0.000000 -0.000000 1.000000 1.000000 1.000000
286 1 187.966793 77.353752 187.966793 77.353752 -0.000000 -0.000000 1.000000 1.000000 1.000000
287 1 99.585795 138.698357 99.585795 138.698357 0.000000 -0.000000 1.000000 1.000000 1.000000
288 1 84.638353 8.551081 84.638353 8.551081 0.000000 -0.000000 1.000000 1.000000 1.000000
289 1 132.191522 56.254076 132.191522 56.254076 0.000000 0.000000 1.000000 1.000000 1.000000
290 1 177.862729 205.674736 177.862729 -3.475201 -0.000000 -0.000000 1.000000 1.000000 1.000000
291 1 22.870448 75.409865 22.870448 75.409865 -0.000000 0.000000 1.000000 1.000000 1.000000
292 1 33.783947 45.145155 33.783947 45.145155 -0.000000 0.000000 1.000000 1.000000 1.000000
293 1 77.044948 114.894061 77.044948 114.894061 -0.000000 0.000000 1.000000 1.000000 1.000000
294 1 188.108391 38.307219 188.108391 38.307219 -0.000000 0.000000 1.000000 1.000000 1.000000
295 1 127.798587 127.865048 127.798587 127.865048 0.000000 0.000000 1.000000 1.000000 1.000000
296 1 185.432036 97.194927 185.432036 97.194927 -0.000000 0.000000 1.000000 1.000000 1.000000
297 1 150.692962 202.764034 150.692962 202.764034 0.000000 -0.000000 1.000000 1.000000 1.000000
298 1 81.087638 16.573994 81.087638 16.573994 0.000000 0.000000 1.000000 1.000000 1.000000
299 1 176.374458 51.039814 176.374458 51.039814 0.000000 0.000000 1.000000 1.000000 1.000000
300 1 145.951155 57.883572 145.951155 57.883572 -0.000000 -0.000000 1.000000 1.000000 1.000000
301 1 171.428326 61.004137 171.428326 61.004137 -0.000000 -0.000000 1.000000 1.000000 1.000000
302 1 163.017776 27.045692 163.017776 27.045692 0.000000 -0.000000 1.000000 1.000000 1.000000
303 1 52.709608 146.317245 52.709608 146.317245 -0.000000 0.000000 1.000000 1.000000 1.000000
304 1 194.608456 34.281753 194.608456 34.281753 0.000000 -0.000000 1.000000 1.000000 1.000000
305 1 111.904803 102.417947 111.904803 102.417947 -0.000000 -0.000000 1.000000 1.000000 1.000000
306 1 22.885917 93.389334 22.885917 93.389334 0.000000 -0.000000 1.000000 1.000000 1.000000
307 1 80.298121 26.866200 80.298121 26.866200 -0.000000 0.000000 1.000000 1.000000 1.000000
308 1 66.525793 48.893079 66.525793 48.893079 -0.000000 0.000000 1.000000 1.000000 1.000000
309 1 145.119035 14.615100 145.119035 14.615100 0.000000 -0.000000 1.000000 1.000000 1.000000
310 1 34.544804 137.077257 34.544804 137.077257 0.000000 -0.000000 1.000000 1.000000 1.000000
311 1 94.253705 93.178457 94.253705 93.178457 0.000000 0.000000 1.000000 1.000000 1.000000
312 1 125.431119 182.647263 125.431119 182.647263 0.000000 -0.000000 1.000000 1.000000 1.000000
313 1 173.489519 116.588801 173.489519 116.588801 -0.000000 -0.000000 1.000000 1.000000 1.000000
314 1 181.548900 22.749709 181.548900 22.749709 -0.000000 -0.000000 1.000000 1.000000 1.000000
315 1 98.456605 188.407888 98.456605 188.407888 -0.000000 0.000000 1.000000 1.000000 1.000000
316 1 54.994053 4.294988 54.994053 4.294988 0.000000 -0.000000 1.000000 1.000000 1.000000
317 1 194.156417 5.481825 194.156417 214.631762 0.000000 -0.000000 1.000000 1.000000 1.000000