ITEM: TIMESTEP
2900.000000
ITEM: NUMBER OF ATOMS
5000
ITEM: BOX BOUNDS xy xz yz
0 273.101739 0
0 273.101739 0
0 2 0
ITEM: ATOMS id type x y xu yu vx vy radius m z
0 1 203.576036 201.906692 203.576036 201.906692 0.000000 -0.000000 1.000000 1.000000 1.000000
1 1 182.865709 40.475507 182.865709 40.475507 -0.000000 -0.000000 1.000000 1.000000 1.000000
2 1 220.339242 241.553687 220.339242 241.553687 -0.000000 0.000000 1.000000 1.000000 1.000000
3 1 38.999134 123.571489 38.999134 123.571489 -0.000000 -0.000000 1.000000 1.000000 1.000000
4 1 212.070909 232.373745 212.070909 232.373745 0.000000 0.000000 1.000000 1.000000 1.000000
5 1 198.432405 88.503156 198.432405 88.503156 -0.000000 -0.000000 1.000000 1.000000 1.000000
6 1 18.596654 24.160364 18.596654 297.262103 -0.000000 -0.000000 1.000000 1.000000 1.000000
7 1 219.358138 58.968318 219.358138 58.968318 -0.000000 0.000000 1.000000 1.000000 1.000000
8 1 260.865441 176.658108 -12.236298 176.658108 -0.000000 0.000000 1.000000 1.000000 1.000000
9 1 219.997833 108.166703 219.997833 108.166703 -0.000000 0.000000 1.000000 1.000000 1.000000
10 1 159.153094 33.522829 159.153094 33.522829 0.000000 0.000000 1.000000 1.000000 1.000000
11 1 162.597983 129.798060 162.597983 129.798060 0.000000 0.000000 1.000000 1.000000 1.000000
12 1 199.391919 65.129535 199.391919 65.129535 0.000000 0.000000 1.000000 1.000000 1.000000
13 1 144.048045 7.869231 144.048045 7.869231 -0.000000 0.000000 1.000000 1.000000 1.000000
14 1 214.641360 208.625123 214.641360 208.625123 0.000000 -0.000000 1.000000 1.000000 1.000000
15 1 33.339471 143.986378 33.339471 143.986378 -0.000000 -0.000000 1.000000 1.000000 1.000000
16 1 2.425169 70.515793 2.425169 70.515793 -0.000000 -0.000000 1.000000 1.000000 1.000000
17 1 198.211859 20.440497 198.211859 20.440497 -0.000000 -0.000000 1.000000 1.000000 1.000000
18 1 91.930848 126.841375 91.930848 126.841375 -0.000000 0.000000 1.000000 1.000000 1.000000
19 1 85.288656 262.300177 85.288656 262.300177 0.000000 0.000000 1.000000 1.000000 1.000000
20 1 224.195831 72.825551 224.195831 72.825551 -0.000000 0.000000 1.000000 1.000000 1.000000
21 1 26.990839 202.585185 26.990839 202.585185 -0.000000 -0.000000 1.000000 1.000000 1.000000
22 1 221.854490 183.855537 221.854490 183.855537 0.000000 0.000000 1.000000 1.000000 1.000000
23 1 10.810474 0.925127 10.810474 274.026866 -0.000000 -0.000000 1.000000 1.000000 1.000000
24 1 21.717321 135.838073 21.717321 135.838073 0.000000 -0.000000 1.000000 1.000000 1.000000
25 1 105.992875 254.910414 105.992875 254.910414 -0.000000 -0.000000 1.000000 1.000000 1.000000
26 1 71.542704 132.596186 71.542704 132.596186 0.000000 0.000000 1.000000 1.000000 1.000000
27 1 89.588805 4.434105 89.588805 4.434105 0.000000 0.000000 1.000000 1.000000 1.000000
28 1 5.272898 190.698258 5.272898 190.698258 0.000000 -0.000000 1.000000 1.000000 1.000000
29 1 257.931047 208.154268 257.931047 208.154268 0.000000 0.000000 1.000000 1.000000 1.000000
30 1 52.831591 256.811964 52.831591 256.811964 -0.000000 -0.000000 1.000000 1.000000 1.000000
31 1 246.718278 115.817041 246.718278 115.817041 0.000000 -0.000000 1.000000 1.000000 1.000000
32 1 261.105209 203.360715 261.105209 203.360715 -0.000000 -0.000000 1.000000 1.000000 1.000000
33 1 145.093165 105.095459 145.093165 105.095459 0.000000 -0.000000 1.000000 1.000000 1.000000
34 1 45.796569 11.898033 45.796569 11.898033 -0.000000 0.000000 1.000000 1.000000 1.000000
35 1 194.060931 38.795629 194.060931 38.795629 -0.000000 -0.000000 1.000000 1.000000 1.000000
36 1 29.684519 193.577194 29.684519 193.577194 -0.000000 0.000000 1.000000 1.000000 1.000000
37 1 72.584133 107.603931 72.584133 107.603931 -0.000000 -0.000000 1.000000 1.000000 1.000000
38 1 182.314682 58.187849 182.314682 58.187849 0.000000 -0.000000 1.000000 1.000000 1.000000
39 1 76.189161 170.995056 76.189161 170.995056 0.000000 0.000000 1.000000 1.000000 1.000000
40 1 239.806992 250.659668 239.806992 -22.442071 0.000000 -0.000000 1.000000 1.000000 1.000000
41 1 166.318340 99.757270 166.318340 99.757270 -0.000000 -0.000000 1.000000 1.000000 1.000000
42 1 235.724188 24.166774 235.724188 24.166774 -0.000000 0.000000 1.000000 1.000000 1.000000
43 1 217.780077 110.648793 217.780077 110.648793 0.000000 0.000000 1.000000 1.000000 1.000000
44 1 10.710773 162.530592 10.710773 162.530592 0.000000 -0.000000 1.000000 1.000000 1.000000
45 1 26.929239 134.209396 26.929239 134.209396 0.000000 -0.000000 1.000000 1.000000 1.000000
46 1 131.853788 21.709326 131.853788 21.709326 -0.000000 0.000000 1.000000 1.000000 1.000000
47 1 218.501743 99.524963 218.501743 99.524963 -0.000000 0.000000 1.000000 1.000000 1.000000
48 1 32.660280 100.647819 32.660280 100.647819 0.000000 -0.000000 1.000000 1.000000 1.000000
49 1 242.554729 212.840475 242.554729 212.840475 -0.000000 0.000000 1.000000 1.000000 1.000000
50 1 20.563039 82.358650 20.563039 82.358650 0.000000 -0.000000 1.000000 1.000000 1.000000
51 1 65.017020 198.642215 65.017020 198.642215 -0.000000 -0.000000 1.000000 1.000000 1.000000
52 1 39.105913 229.461013 39.105913 229.461013 0.000000 -0.000000 1.000000 1.000000 1.000000
53 1 262.764275 154.648766 262.764275 154.648766 -0.000000 -0.000000 1.000000 1.000000 1.000000
54 1 66.418482 230.405315 66.418482 230.405315 -0.000000 0.000000 1.000000 1.000000 1.000000
55 1 70.585817 39.446436 70.585817 39.446436 -0.000000 -0.000000 1.000000 1.000000 1.000000
56 1 38.104179 140.573830 38.104179 140.573830 -0.000000 -0.000000 1.000000 1.000000 1.000000
57 1 64.703616 66.693618 64.703616 66.693618 -0.000000 0.000000 1.000000 1.000000 1.000000
58 1 60.342213 212.952946 60.342213 212.952946 -0.000000 -0.000000 1.000000 1.000000 1.000000
59 1 119.602740 152.349012 119.602740 152.349012 0.000000 -0.000000 1.000000 1.000000 1.000000
60 1 202.498556 93.632912 202.498556 93.632912 -0.000000 -0.000000 1.000000 1.000000 1.000000
61 1 256.150353 266.596466 256.150353 266.596466 0.000000 0.000000 1.000000 1.000000 1.000000
62 1 225.285189 3.738727 225.285189 3.738727 -0.000000 -0.000000 1.000000 1.000000 1.000000
63 1 149.813951 150.633078 149.813951 150.633078 0.000000 -0.000000 1.000000 1.000000 1.000000
64 1 182.155096 209.258688 182.155096 209.258688 -0.000000 -0.000000 1.000000 1.000000 1.000000
65 1 42.389805 239.758146 42.389805 -33.343593 0.000000 0.000000 1.000000 1.000000 1.000000
66 1 260.997382 190.992689 260.997382 190.992689 0.000000 -0.000000 1.000000 1.000000 1.000000
67 1 261.623710 133.604734 -11.478029 133.604734 -0.000000 0.000000 1.000000 1.000000 1.000000
68 1 15.217858 80.298252 15.217858 80.298252 -0.000000 0.000000 1.000000 1.000000 1.000000
69 1 100.438225 50.234314 100.438225 50.234314 0.000000 0.000000 1.000000 1.000000 1.000000
70 1 262.865271 75.545420 -10.236468 75.545420 -0.000000 0.000000 1.000000 1.000000 1.000000
71 1 236.523951 146.981035 236.523951 146.981035 0.000000 -0.000000 1.000000 1.000000 1.000000
72 1 112.737323 133.787668 112.737323 133.787668 0.000000 0.000000 1.000000 1.000000 1.000000
73 1 127.938485 82.434434 127.938485 82.434434 -0.000000 0.000000 1.000000 1.000000 1.000000
74 1 154.579420 189.174882 154.579420 189.174882 0.000000 -0.000000 1.000000 1.000000 1.000000
75 1 177.130675 249.488503 177.130675 249.488503 -0.000000 0.000000 1.000000 1.000000 1.000000
76 1 19.295956 212.064996 19.295956 212.064996 -0.000000 0.000000 1.000000 1.000000 1.000000
77 1 6.931426 198.436368 6.931426 198.436368 -0.000000 -0.000000 1.000000 1.000000 1.000000
78 1 178.941874 0.955130 178.941874 0.955130 0.000000 0.000000 1.000000 1.000000 1.000000
79 1 121.175797 68.228209 121.175797 68.228209 0.000000 0.000000 1.000000 1.000000 1.000000
80 1 190.637086 98.948822 190.637086 98.948822 -0.000000 0.000000 1.000000 1.000000 1.000000
81 1 188.992522 127.853195 188.992522 127.853195 -0.000000 0.000000 1.000000 1.000000 1.000000
82 1 232.747558 106.891843 232.747558 106.891843 0.000000 -0.000000 1.000000 1.000000 1.000000
83 1 160.563963 269.001080 160.563963 269.001080 0.000000 0.000000 1.000000 1.000000 1.000000
84 1 128.544852 169.715285 128.544852 169.715285 -0.000000 -0.000000 1.000000 1.000000 1.000000
85 1 258.736034 114.188094 258.736034 114.188094 0.000000 0.000000 1.000000 1.000000 1.000000
86 1 110.198806 70.698347 110.198806 70.698347 0.000000 0.000000 1.000000 1.000000 1.000000
87 1 106.215077 53.664892 106.215077 53.664892 0.000000 0.000000 1.000000 1.000000 1.000000
88 1 272.741591 96.034129 272.741591 96.034129 -0.000000 -0.000000 1.000000 1.000000 1.000000
89 1 50.518624 207.397497 50.518624 207.397497 -0.000000 -0.000000 1.000000 1.000000 1.000000
90 1 213.118986 228.308187 213.118986 228.308187 -0.000000 -0.000000 1.000000 1.000000 1.000000
91 1 79.759491 90.821931 79.759491 90.821931 -0.000000 -0.000000 1.000000 1.000000 1.000000
92 1 124.933829 4.223763 124.933829 4.223763 -0.000000 0.000000 1.000000 1.000000 1.000000
93 1 193.755625 169.758584 193.755625 169.758584 0.000000 0.000000 1.000000 1.000000 1.000000
94 1 111.454249 65.968496 111.454249 65.968496 -0.000000 -0.000000 1.000000 1.000000 1.000000
95 1 7.122437 43.827609 7.122437 43.827609 0.000000 -0.000000 1.000000 1.000000 1.000000
96 1 97.064133 47.274241 97.064133 47.274241 0.000000 0.000000 1.000000 1.000000 1.000000
97 1 77.227928 14.014501 77.227928 14.014501 0.000000 -0.000000 1.000000 1.000000 1.000000
98 1 237.337941 93.486580 237.337941 93.486580 0.000000 -0.000000 1.000000 1.000000 1.000000
99 1 147.906913 102.796048 147.906913 102.796048 -0.000000 0.000000 1.000000 1.000000 1.000000
100 1 209.956472 174.165104 209.956472 174.165104 -0.000000 -0.000000 1.000000 1.000000 1.000000
101 1 141.703608 123.985558 141.703608 123.985558 -0.000000 -0.000000 1.000000 1.000000 1.000000
102 1 147.165627 258.568468 147.165627 -14.533271 -0.000000 -0.000000 1.000000 1.000000 1.000000
103 1 204.789487 184.388030 204.789487 184.388030 0.000000 -0.000000 1.000000 1.000000 1.000000
104 1 173.085970 222.998433 173.085970 222.998433 -0.000000 0.000000 1.000000 1.000000 1.000000
105 1 46.995276 1.181475 46.995276 1.181475 0.000000 -0.000000 1.000000 1.000000 1.000000
106 1 104.130869 217.859177 104.130869 217.859177 -0.000000 0.000000 1.000000 1.000000 1.000000
107 1 201.299141 58.900337 201.299141 58.900337 -0.000000 -0.000000 1.000000 1.000000 1.000000
108 1 22.411697 39.413328 22.411697 39.413328 0.000000 -0.000000 1.000000 1.000000 1.000000
109 1 151.951585 27.724662 151.951585 27.724662 0.000000 0.000000 1.000000 1.000000 1.000000
110 1 164.113996 271.872666 164.113996 -1.229073 -0.000000 0.000000 1.000000 1.000000 1.000000
111 1 267.707407 205.731141 -5.394332 205.731141 -0.000000 0.000000 1.000000 1.000000 1.000000
112 1 219.888875 13.911199 219.888875 13.911199 0.000000 -0.000000 1.000000 1.000000 1.000000
113 1 223.490748 68.662920 223.490748 68.662920 -0.000000 0.000000 1.000000 1.000000 1.000000
114 1 123.730949 72.124667 123.730949 72.124667 0.000000 0.000000 1.000000 1.000000 1.000000
115 1 245.954691 171.385644 245.954691 171.385644 0.000000 0.000000 1.000000 1.000000 1.000000
116 1 183.214718 130.658338 183.214718 130.658338 0.000000 0.000000 1.000000 1.000000 1.000000
117 1 168.235038 73.868550 168.235038 73.868550 -0.000000 -0.000000 1.000000 1.000000 1.000000
118 1 183.259915 33.069560 183.259915 33.069560 -0.000000 0.000000 1.000000 1.000000 1.000000
119 1 270.119382 243.624998 -2.982357 243.624998 0.000000 0.000000 1.000000 1.000000 1.000000
120 1 81.884015 120.504003 81.884015 120.504003 -0.000000 0.000000 1.000000 1.000000 1.000000
121 1 269.350076 204.153627 269.350076 204.153627 0.000000 0.000000 1.000000 1.000000 1.000000
122 1 225.882564 39.014346 225.882564 39.014346 0.000000 -0.000000 1.000000 1.000000 1.000000
123 1 143.112310 35.161162 143.112310 35.161162 0.000000 -0.000000 1.000000 1.000000 1.000000
124 1 1.268182 138.561568 274.369921 138.561568 -0.000000 0.000000 1.000000 1.000000 1.000000
125 1 166.113784 266.288649 166.113784 266.288649 -0.000000 -0.000000 1.000000 1.000000 1.000000
126 1 217.064222 163.730339 217.064222 163.730339 0.000000 -0.000000 1.000000 1.000000 1.000000
127 1 233.617134 125.535360 233.617134 125.535360 0.000000 0.000000 1.000000 1.000000 1.000000
128 1 4.846630 35.001634 277.948369 35.001634 -0.000000 0.000000 1.000000 1.000000 1.000000
129 1 75.935202 107.989575 75.935202 107.989575 0.000000 0.000000 1.000000 1.000000 1.000000
130 1 208.519657 92.738262 208.519657 92.738262 -0.000000 0.000000 1.000000 1.000000 1.000000
131 1 177.649924 133.701206 177.649924 133.701206 0.000000 0.000000 1.000000 1.000000 1.000000
132 1 255.848114 213.068254 255.848114 213.068254 0.000000 -0.000000 1.000000 1.000000 1.000000
133 1 188.799841 99.929766 188.799841 99.929766 -0.000000 -0.000000 1.000000 1.000000 1.000000
134 1 148.267071 79.470027 148.267071 79.470027 0.000000 0.000000 1.000000 1.000000 1.000000
135 1 223.511475 17.603955 223.511475 17.603955 -0.000002 -0.000001 1.000000 1.000000 1.000000
136 1 240.564663 259.212076 240.564663 259.212076 0.000000 0.000000 1.000000 1.000000 1.000000
137 1 164.032802 168.179793 164.032802 168.179793 0.000000 0.000000 1.000000 1.000000 1.000000
138 1 161.312329 96.449999 161.312329 96.449999 -0.000000 0.000000 1.000000 1.000000 1.000000
139 1 87.947940 31.902947 87.947940 31.902947 -0.000000 -0.000000 1.000000 1.000000 1.000000
140 1 99.232528 61.477061 99.232528 61.477061 0.000000 0.000000 1.000000 1.000000 1.000000
141 1 70.655988 4.426323 70.655988 4.426323 0.000000 0.000000 1.000000 1.000000 1.000000
142 1 228.187913 68.609962 228.187913 68.609962 -0.000000 0.000000 1.000000 1.000000 1.000000
143 1 10.062645 211.390482 10.062645 211.390482 0.000000 -0.000000 1.000000 1.000000 1.000000
144 1 240.109013 34.169514 240.109013 34.169514 -0.000000 -0.000001 1.000000 1.000000 1.000000
145 1 157.866131 215.066984 157.866131 215.066984 -0.000000 0.000000 1.000000 1.000000 1.000000
146 1 194.972049 155.257830 194.972049 155.257830 0.000000 -0.000000 1.000000 1.000000 1.000000
147 1 127.514355 267.373058 127.514355 -5.728681 -0.000000 -0.000000 1.000000 1.000000 1.000000
148 1 11.273744 239.108905 11.273744 239.108905 -0.000000 -0.000000 1.000000 1.000000 1.000000
149 1 172.895845 158.312821 172.895845 158.312821 -0.000000 0.000000 1.000000 1.000000 1.000000
150 1 249.206113 49.413377 249.206113 49.413377 -0.000000 0.000000 1.000000 1.000000 1.000000
151 1 268.105839 265.050295 268.105839 265.050295 0.000000 -0.000000 1.000000 1.000000 1.000000
152 1 179.312372 248.495517 179.312372 -24.606222 0.000000 -0.000000 1.000000 1.000000 1.000000
153 1 176.773675 21.617528 176.773675 21.617528 0.000000 -0.000000 1.000000 1.000000 1.000000
154 1 20.816084 194.124696 20.816084 194.124696 0.000000 -0.000000 1.000000 1.000000 1.000000
155 1 271.736869 233.231053 -1.364870 233.231053 -0.000000 0.000000 1.000000 1.000000 1.000000
156 1 124.870689 118.734062 124.870689 118.734062 0.000000 -0.000000 1.000000 1.000000 1.000000
157 1 214.459787 1.831300 214.459787 274.933039 -0.000000 -0.000000 1.000000 1.000000 1.000000
158 1 120.889751 29.863962 120.889751 29.863962 -0.000000 0.000000 1.000000 1.000000 1.000000
159 1 52.628133 125.711132 52.628133 125.711132 -0.000000 -0.000000 1.000000 1.000000 1.000000
160 1 214.657188 167.186578 214.657188 167.186578 -0.000000 -0.000000 1.000000 1.000000 1.000000
161 1 38.770867 106.857369 38.770867 106.857369 0.000000 0.000000 1.000000 1.000000 1.000000
162 1 44.056806 167.867627 44.056806 167.867627 -0.000000 0.000000 1.000000 1.000000 1.000000
163 1 22.959589 241.206087 22.959589 241.206087 0.000000 -0.000000 1.000000 1.000000 1.000000
164 1 255.390490 216.888238 -17.711249 216.888238 -0.000000 -0.000000 1.000000 1.000000 1.000000
165 1 57.265258 237.800409 57.265258 237.800409 0.000000 0.000000 1.000000 1.000000 1.000000
166 1 262.083090 40.062674 262.083090 40.062674 0.000000 -0.000000 1.000000 1.000000 1.000000
167 1 139.495397 107.357194 139.495397 107.357194 -0.000000 -0.000000 1.000000 1.000000 1.000000
168 1 131.361650 131.685890 131.361650 131.685890 0.000000 -0.000000 1.000000 1.000000 1.000000
169 1 71.931311 87.526499 71.931311 87.526499 -0.000000 0.000000 1.000000 1.000000 1.000000
170 1 25.368909 68.305008 25.368909 68.305008 -0.000000 0.000000 1.000000 1.000000 1.000000
171 1 8.503058 16.672785 8.503058 16.672785 -0.000000 0.000000 1.000000 1.000000 1.000000
172 1 240.824299 104.959542 240.824299 104.959542 0.000000 -0.000000 1.000000 1.000000 1.000000
173 1 139.284032 142.382426 139.284032 142.382426 0.000000 -0.000000 1.000000 1.000000 1.000000
174 1 200.955341 218.990007 200.955341 218.990007 -0.000000 0.000000 1.000000 1.000000 1.000000
175 1 57.694218 47.333378 57.694218 47.333378 -0.000000 0.000000 1.000000 1.000000 1.000000
176 1 117.546168 153.103659 117.546168 153.103659 -0.000000 0.000000 1.000000 1.000000 1.000000
177 1 189.959846 105.212081 189.959846 105.212081 0.000000 0.000000 1.000000 1.000000 1.000000
178 1 149.613021 268.962104 149.613021 268.962104 -0.000000 0.000000 1.000000 1.000000 1.000000
179 1 135.478469 158.162749 135.478469 158.162749 0.000000 -0.000000 1.000000 1.000000 1.000000
180 1 234.829728 108.918787 234.829728 108.918787 -0.000000 0.000000 1.000000 1.000000 1.000000
181 1 181.325654 205.154668 181.325654 205.154668 -0.000000 -0.000000 1.000000 1.000000 1.000000
182 1 88.842656 107.173574 88.842656 107.173574 -0.000000 0.000000 1.000000 1.000000 1.000000
183 1 20.020148 266.824978 20.020148 266.824978 0.000000 -0.000000 1.000000 1.000000 1.000000
184 1 43.918417 184.447083 43.918417 184.447083 0.000000 0.000000 1.000000 1.000000 1.000000
185 1 156.255647 51.717377 156.255647 51.717377 0.000000 0.000000 1.000000 1.000000 1.000000
186 1 224.382562 19.911365 224.382562 19.911365 -0.000000 -0.000000 1.000000 1.000000 1.000000
187 1 171.738453 147.022636 171.738453 147.022636 0.000000 -0.000000 1.000000 1.000000 1.000000
188 1 204.342780 234.000493 204.342780 234.000493 0.000000 0.000000 1.000000 1.000000 1.000000
189 1 20.890628 66.133528 20.890628 66.133528 -0.000000 0.000000 1.000000 1.000000 1.000000
190 1 58.357102 148.101073 58.357102 148.101073 -0.000000 0.000000 1.000000 1.000000 1.000000
191 1 71.136118 74.885310 71.136118 74.885310 -0.000000 -0.000000 1.000000 1.000000 1.000000
192 1 7.376136 253.044252 7.376136 253.044252 -0.000000 -0.000000 1.000000 1.000000 1.000000
193 1 233.541161 66.799691 233.541161 66.799691 0.000000 0.000000 1.000000 1.000000 1.000000
194 1 159.878274 152.895061 159.878274 152.895061 -0.000000 -0.000000 1.000000 1.000000 1.000000
195 1 105.205111 70.769898 105.205111 70.769898 0.000000 0.000000 1.000000 1.000000 1.000000
196 1 75.088848 18.961794 75.088848 18.961794 0.000000 0.000000 1.000000 1.000000 1.000000
197 1 80.136757 261.511872 80.136757 261.511872 0.000000 0.000000 1.000000 1.000000 1.000000
198 1 120.646944 98.019384 120.646944 98.019384 0.000000 -0.000000 1.000000 1.000000 1.000000
199 1 22.306195 0.091926 22.306195 273.193665 -0.000000 -0.000000 1.000000 1.000000 1.000000
200 1 260.192886 149.889698 260.192886 149.889698 0.000000 0.000000 1.000000 1.000000 1.000000
201 1 2.706948 81.502341 2.706948 81.502341 0.000000 -0.000000 1.000000 1.000000 1.000000
202 1 140.867716 236.200945 140.867716 236.200945 0.000000 0.000000 1.000000 1.000000 1.000000
203 1 70.216314 121.502030 70.216314 121.502030 0.000000 0.000000 1.000000 1.000000 1.000000
204 1 150.082240 179.698833 150.082240 179.698833 -0.000000 0.000000 1.000000 1.000000 1.000000
205 1 148.795316 219.239976 148.795316 219.239976 0.000000 -0.000000 1.000000 1.000000 1.000000
206 1 257.125717 10.301545 257.125717 283.403284 0.000000 0.000000 1.000000 1.000000 1.000000
207 1 152.477192 225.168445 152.477192 225.168445 -0.000000 0.000000 1.000000 1.000000 1.000000
208 1 28.933602 158.833583 28.933602 158.833583 -0.000000 -0.000000 1.000000 1.000000 1.000000
209 1 207.106098 30.078966 207.106098 30.078966 -0.000000 0.000000 1.000000 1.000000 1.000000
210 1 271.095547 138.451038 -2.006192 138.451038 -0.000000 -0.000000 1.000000 1.000000 1.000000
211 1 66.469202 44.853142 66.469202 44.853142 0.000000 -0.000000 1.000000 1.000000 1.000000
212 1 119.949194 268.690262 119.949194 -4.411477 -0.000000 0.000000 1.000000 1.000000 1.000000
213 1 185.039055 266.798910 185.039055 -6.302829 -0.000000 -0.000000 1.000000 1.000000 1.000000
214 1 72.639376 59.445625 72.639376 59.445625 0.000000 0.000000 1.000000 1.000000 1.000000
215 1 31.674736 70.614734 31.674736 70.614734 0.000000 -0.000000 1.000000 1.000000 1.000000
216 1 100.417810 165.009752 100.417810 165.009752 -0.000000 -0.000000 1.000000 1.000000 1.000000
217 1 171.396020 59.197035 171.396020 59.197035 -0.000000 0.000000 1.000000 1.000000 1.000000
218 1 73.196432 227.356667 73.196432 227.356667 -0.000000 -0.000000 1.000000 1.000000 1.000000
219 1 180.068081 28.396551 180.068081 28.396551 -0.000000 -0.000000 1.000000 1.000000 1.000000
220 1 24.870788 217.249009 24.870788 217.249009 -0.000000 0.000000 1.000000 1.000000 1.000000
221 1 4.145667 225.798296 277.247406 225.798296 0.000000 -0.000000 1.000000 1.000000 1.000000
222 1 120.421488 2.018392 120.421488 2.018392 0.000000 -0.000000 1.000000 1.000000 1.000000
223 1 131.491923 224.686191 131.491923 224.686191 -0.000000 -0.000000 1.000000 1.000000 1.000000
224 1 149.619859 195.335326 149.619859 195.335326 -0.000000 -0.000000 1.000000 1.000000 1.000000
225 1 62.393950 134.775159 62.393950 134.775159 0.000000 -0.000000 1.000000 1.000000 1.000000
226 1 46.599219 259.993921 46.599219 259.993921 0.000000 0.000000 1.000000 1.000000 1.000000
227 1 133.334378 102.899609 133.334378 102.899609 0.000000 -0.000000 1.000000 1.000000 1.000000
228 1 64.784096 83.927157 64.784096 83.927157 -0.000000 0.000000 1.000000 1.000000 1.000000
229 1 42.922874 137.110317 42.922874 137.110317 -0.000000 -0.000000 1.000000 1.000000 1.000000
230 1 151.815785 138.603254 151.815785 138.603254 -0.000000 0.000000 1.000000 1.000000 1.000000
231 1 122.745256 205.248359 122.745256 205.248359 -0.000000 -0.000000 1.000000 1.000000 1.000000
232 1 77.362948 76.902207 77.362948 76.902207 0.000000 -0.000000 1.000000 1.000000 1.000000
233 1 146.329936 183.313279 146.329936 183.313279 0.000000 0.000000 1.000000 1.000000 1.000000
234 1 217.351761 158.772264 217.351761 158.772264 -0.000000 0.000000 1.000000 1.000000 1.000000
235 1 103.932111 154.185559 103.932111 154.185559 -0.000000 0.000000 1.000000 1.000000 1.000000
236 1 199.505807 236.226054 199.505807 236.226054 0.000000 -0.000000 1.000000 1.000000 1.000000
237 1 148.519236 71.721177 148.519236 71.721177 0.000000 -0.000000 1.000000 1.000000 1.000000
238 1 251.955349 15.476952 251.955349 15.476952 -0.000000 -0.000000 1.000000 1.000000 1.000000
239 1 36.040945 262.863000 36.040945 -10.238739 -0.000000 -0.000000 1.000000 1.000000 1.000000
240 1 106.106333 246.284426 106.106333 246.284426 -0.000000 0.000000 1.000000 1.000000 1.000000
241 1 103.069673 161.530200 103.069673 161.530200 0.000000 -0.000000 1.000000 1.000000 1.000000
242 1 252.405005 207.265389 252.405005 207.265389 0.000000 0.000000 1.000000 1.000000 1.000000
243 1 19.084657 130.658545 19.084657 130.658545 -0.000000 -0.000000 1.000000 1.000000 1.000000
244 1 235.949897 101.588830 235.949897 101.588830 0.000000 -0.000000 1.000000 1.000000 1.000000
245 1 85.890890 84.227128 85.890890 84.227128 -0.000000 -0.000000 1.000000 1.000000 1.000000
246 1 127.704269 234.994460 127.704269 234.994460 -0.000000 0.000000 1.000000 1.000000 1.000000
247 1 29.267820 165.975578 29.267820 165.975578 -0.000000 0.000000 1.000000 1.000000 1.000000
248 1 147.599016 19.487901 147.599016 292.589640 -0.000000 0.000000 1.000000 1.000000 1.000000
249 1 5.420829 171.251146 5.420829 171.251146 0.000000 -0.000000 1.000000 1.000000 1.000000
250 1 221.395261 43.548177 221.395261 43.548177 0.000000 0.000000 1.000000 1.000000 1.000000
251 1 64.237695 178.895354 64.237695 178.895354 0.000000 -0.000000 1.000000 1.000000 1.000000
252 1 185.254652 248.629821 185.254652 248.629821 0.000000 0.000000 1.000000 1.000000 1.000000
253 1 199.761864 35.292403 199.761864 35.292403 0.000000 -0.000000 1.000000 1.000000 1.000000
254 1 195.213099 263.238669 195.213099 263.238669 0.000000 -0.000000 1.000000 1.000000 1.000000
255 1 163.769060 204.528453 163.769060 204.528453 -0.000000 0.000000 1.000000 1.000000 1.000000
256 1 173.655437 75.408038 173.655437 75.408038 -0.000000 -0.000000 1.000000 1.000000 1.000000
257 1 103.853951 175.493262 103.853951 175.493262 -0.000000 0.000000 1.000000 1.000000 1.000000
258 1 3.897476 175.954809 3.897476 175.954809 -0.000000 0.000000 1.000000 1.000000 1.000000
259 1 240.787376 21.695214 240.787376 294.796953 0.000000 -0.000000 1.000000 1.000000 1.000000
260 1 103.695319 107.985965 103.695319 107.985965 -0.000000 -0.000000 1.000000 1.000000 1.000000
261 1 33.063327 44.076852 33.063327 44.076852 0.000000 -0.000000 1.000000 1.000000 1.000000
262 1 18.045297 234.520858 18.045297 234.520858 -0.000000 0.000000 1.000000 1.000000 1.000000
263 1 235.212004 201.002543 235.212004 201.002543 0.000000 -0.000000 1.000000 1.000000 1.000000
264 1 144.375722 143.757650 144.375722 143.757650 0.000000 -0.000000 1.000000 1.000000 1.000000
265 1 150.753526 263.141759 150.753526 263.141759 -0.000000 -0.000000 1.000000 1.000000 1.000000
266 1 36.791599 146.731906 36.791599 146.731906 -0.000000 0.000000 1.000000 1.000000 1.000000
267 1 243.670826 46.022778 243.670826 46.022778 -0.000000 0.000000 1.000000 1.000000 1.000000
268 1 256.135221 61.832191 256.135221 61.832191 -0.000000 -0.000000 1.000000 1.000000 1.000000
269 1 146.781283 83.037275 146.781283 83.037275 0.000000 0.000000 1.000000 1.000000 1.000000
270 1 103.605104 172.339824 103.605104 172.339824 0.000000 -0.000000 1.000000 1.000000 1.000000
271 1 242.958164 89.589263 242.958164 89.589263 0.000000 0.000000 1.000000 1.000000 1.000000
272 1 102.583266 185.899096 102.583266 185.899096 -0.000000 -0.000000 1.000000 1.000000 1.000000
273 1 203.968469 49.236705 203.968469 49.236705 -0.000000 -0.000000 1.000000 1.000000 1.000000
274 1 202.434708 83.861480 202.434708 83.861480 0.000000 0.000000 1.000000 1.000000 1.000000
275 1 230.614479 206.341849 230.614479 206.341849 0.000000 0.000000 1.000000 1.000000 1.000000
276 1 224.708153 201.730381 224.708153 201.730381 0.000000 0.000000 1.000000 1.000000 1.000000
277 1 39.347238 242.210068 39.347238 242.210068 0.000000 0.000000 1.000000 1.000000 1.000000
278 1 238.197367 50.904344 238.197367 50.904344 0.000000 0.000000 1.000000 1.000000 1.000000
279 1 68.933740 78.345366 68.933740 78.345366 -0.000000 0.000000 1.000000 1.000000 1.000000
280 1 161.670860 253.713529 161.670860 -19.388210 -0.000000 0.000000 1.000000 1.000000 1.000000
281 1 149.759176 120.175919 149.759176 120.175919 0.000000 0.000000 1.000000 1.000000 1.000000
282 1 36.763789 12.524501 36.763789 285.626240 0.000000 0.000000 1.000000 1.000000 1.000000
283 1 139.707108 203.683872 139.707108 203.683872 -0.000000 -0.000000 1.000000 1.000000 1.000000
284 1 101.396891 91.353442 101.396891 91.353442 0.000000 0.000000 1.000000 1.000000 1.000000
285 1 60.981391 83.296255 60.981391 83.296255 0.000000 -0.000000 1.000000 1.000000 1.000000
286 1 232.092156 156.513577 232.092156 156.513577 0.000000 -0.000000 1.000000 1.000000 1.000000
287 1 192.299094 91.142956 192.299094 91.142956 -0.000000 0.000000 1.000000 1.000000 1.000000
288 1 114.798471 242.158695 114.798471 242.158695 0.000000 0.000000 1.000000 1.000000 1.000000
289 1 157.334614 66.993982 157.334614 66.993982 -0.000000 -0.000000 1.000000 1.000000 1.000000
290 1 97.307430 202.796710 97.307430 202.796710 -0.000000 0.000000 1.000000 1.000000 1.000000
291 1 22.345632 229.552831 22.345632 229.552831 0.000000 0.000000 1.000000 1.000000 1.000000
292 1 257.099586 86.304475 257.099586 86.304475 0.000000 -0.000000 1.000000 1.000000 1.000000
293 1 99.236840 125.555395 99.236840 125.555395 -0.000000 -0.000000 1.000000 1.000000 1.000000
294 1 149.432329 77.607484 149.432329 77.607484 0.000000 0.000000 1.000000 1.000000 1.000000
295 1 109.414811 20.206602 109.414811 20.206602 -0.000000 0.000000 1.000000 1.000000 1.000000
296 1 142.997820 241.777471 142.997820 241.777471 0.000000 0.000000 1.000000 1.000000 1.000000
297 1 166.341653 32.903429 166.341653 32.903429 -0.000000 0.000000 1.000000 1.000000 1.000000
298 1 131.395653 85.052880 131.395653 85.052880 0.000000 0.000000 1.000000 1.000000 1.000000
299 1 113.188340 67.053103 113.188340 67.053103 0.000000 0.000000 1.000000 1.000000 1.000000
300 1 220.678271 169.462232 220.678271 169.462232 0.000000 -0.000000 1.000000 1.000000 1.000000
301 1 198.996383 265.997989 198.996383 -7.103750 0.000000 -0.000000 1.000000 1.000000 1.000000
302 1 248.063580 259.067474 248.063580 259.067474 -0.000000 0.000000 1.000000 1.000000 1.000000
303 1 44.413624 241.781545 44.413624 241.781545 0.000000 -0.000000 1.000000 1.000000 1.000000
304 1 190.674804 191.870492 190.674804 191.870492 -0.000000 0.000000 1.000000 1.000000 1.000000
305 1 262.199089 199.404135 262.199089 199.404135 -0.000000 -0.000000 1.000000 1.000000 1.000000
306 1 60.091512 221.655848 60.091512 221.655848 -0.000000 -0.000000 1.000000 1.000000 1.000000
307 1 216.599148 120.836045 216.599148 120.836045 -0.000000 -0.000000 1.000000 1.000000 1.000000
308 1 240.942437 61.161279 240.942437 61.161279 -0.000000 -0.000000 1.000000 1.000000 1.000000
309 1 205.889106 250.808323 205.889106 250.808323 0.000000 -0.000000 1.000000 1.000000 1.000000
310 1 4.794653 25.235937 277.896392 25.235937 0.000000 0.000000 1.000000 1.000000 1.000000
311 1 259.787167 81.005255 259.787167 81.005255 0.000000 -0.000000 1.000000 1.000000 1.000000
312 1 80.488191 229.539517 80.488191 229.539517 0.000000 -0.000000 1.000000 1.000000 1.000000
313 1 54.096991 82.526582 54.096991 82.526582 -0.000000 0.000000 1.000000 1.000000 1.000000
314 1 255.530641 261.231284 255.530641 -11.870455 0.000000 -0.000000 1.000000 1.000000 1.000000
315 1 171.695456 195.243865 171.695456 195.243865 0.000000 0.000000 1.000000 1.000000 1.000000
316 1 178.200491 157.343795 178.200491 157.343795 0.000000 -0.000000 1.000000 1.000000 1.000000