ITEM: TIMESTEP
1700.000000
ITEM: NUMBER OF ATOMS
5000
ITEM: BOX BOUNDS xy xz yz
0 235.456741 0
0 235.456741 0
0 2 0
ITEM: ATOMS id type x y xu yu vx vy radius m z
0 1 225.857002 76.189712 225.857002 76.189712 -0.000000 -0.000000 1.000000 1.000000 1.000000
1 1 108.353995 110.407977 108.353995 110.407977 -0.000000 -0.000000 1.000000 1.000000 1.000000
2 1 50.486462 111.233963 50.486462 111.233963 0.000000 -0.000000 1.000000 1.000000 1.000000
3 1 202.724938 79.801789 202.724938 79.801789 -0.000000 0.000000 1.000000 1.000000 1.000000
4 1 138.632790 19.824305 138.632790 19.824305 0.000000 -0.000000 1.000000 1.000000 1.000000
5 1 26.837958 17.790234 26.837958 17.790234 0.000000 0.000000 1.000000 1.000000 1.000000
6 1 129.157748 72.916616 129.157748 72.916616 -0.000000 -0.000000 1.000000 1.000000 1.000000
7 1 98.855837 91.298086 98.855837 91.298086 -0.000000 0.000000 1.000000 1.000000 1.000000
8 1 94.255878 186.216292 94.255878 186.216292 -0.000000 -0.000000 1.000000 1.000000 1.000000
9 1 28.914627 82.785684 28.914627 82.785684 0.000000 0.000000 1.000000 1.000000 1.000000
10 1 104.092214 58.580938 104.092214 58.580938 -0.000000 -0.000000 1.000000 1.000000 1.000000
11 1 230.407962 191.517214 230.407962 191.517214 0.000000 0.000000 1.000000 1.000000 1.000000
12 1 207.159014 20.756714 207.159014 20.756714 -0.000000 0.000000 1.000000 1.000000 1.000000
13 1 87.563330 73.400425 87.563330 73.400425 0.000000 0.000000 1.000000 1.000000 1.000000
14 1 30.406778 96.783449 30.406778 96.783449 0.000000 0.000000 1.000000 1.000000 1.000000
15 1 203.765429 221.963913 203.765429 221.963913 0.000000 0.000000 1.000000 1.000000 1.000000
16 1 144.507509 56.427117 144.507509 56.427117 -0.000000 -0.000000 1.000000 1.000000 1.000000
17 1 187.105603 150.693671 187.105603 150.693671 0.000000 0.000000 1.000000 1.000000 1.000000
18 1 145.798229 218.178293 145.798229 -17.278448 0.000000 -0.000000 1.000000 1.000000 1.000000
19 1 200.972061 145.544271 200.972061 145.544271 0.000000 -0.000000 1.000000 1.000000 1.000000
20 1 93.331184 197.083022 93.331184 197.083022 0.000000 -0.000000 1.000000 1.000000 1.000000
21 1 157.745497 154.675888 157.745497 154.675888 0.000000 0.000000 1.000000 1.000000 1.000000
22 1 201.076352 71.016191 201.076352 71.016191 -0.000000 0.000000 1.000000 1.000000 1.000000
23 1 128.375372 66.658556 128.375372 66.658556 0.000000 -0.000000 1.000000 1.000000 1.000000
24 1 68.580657 38.925616 68.580657 38.925616 0.000000 -0.000000 1.000000 1.000000 1.000000
25 1 212.402570 216.310843 212.402570 216.310843 -0.000000 -0.000000 1.000000 1.000000 1.000000
26 1 57.046715 121.337429 57.046715 121.337429 -0.000000 0.000000 1.000000 1.000000 1.000000
27 1 21.487632 203.082854 21.487632 203.082854 0.000000 -0.000000 1.000000 1.000000 1.000000
28 1 173.008067 171.024856 173.008067 171.024856 0.000000 0.000000 1.000000 1.000000 1.000000
29 1 165.093754 170.416044 165.093754 170.416044 0.000000 0.000000 1.000000 1.000000 1.000000
30 1 59.821767 51.969274 59.821767 51.969274 -0.000000 -0.000000 1.000000 1.000000 1.000000
31 1 160.104355 206.249318 160.104355 206.249318 -0.000000 -0.000000 1.000000 1.000000 1.000000
32 1 132.721174 110.615412 132.721174 110.615412 -0.000000 0.000000 1.000000 1.000000 1.000000
33 1 86.417976 60.383815 86.417976 60.383815 -0.000000 -0.000000 1.000000 1.000000 1.000000
34 1 103.370967 89.712410 103.370967 89.712410 -0.000000 -0.000000 1.000000 1.000000 1.000000
35 1 136.746002 71.656410 136.746002 71.656410 -0.000000 -0.000000 1.000000 1.000000 1.000000
36 1 129.669184 85.392270 129.669184 85.392270 0.000000 0.000000 1.000000 1.000000 1.000000
37 1 44.354944 128.609701 44.354944 128.609701 -0.000000 -0.000000 1.000000 1.000000 1.000000
38 1 179.596931 173.993477 179.596931 173.993477 -0.000000 0.000000 1.000000 1.000000 1.000000
39 1 39.314659 128.610092 39.314659 128.610092 0.000000 -0.000000 1.000000 1.000000 1.000000
40 1 36.646067 164.009301 36.646067 164.009301 -0.000000 -0.000000 1.000000 1.000000 1.000000
41 1 40.902921 78.194971 40.902921 78.194971 -0.000000 0.000000 1.000000 1.000000 1.000000
42 1 174.228344 199.991283 174.228344 199.991283 -0.000000 -0.000000 1.000000 1.000000 1.000000
43 1 211.157437 196.779320 211.157437 196.779320 -0.000000 0.000000 1.000000 1.000000 1.000000
44 1 222.768823 10.567833 222.768823 10.567833 0.000000 -0.000000 1.000000 1.000000 1.000000
45 1 73.364146 83.497362 73.364146 83.497362 -0.000000 -0.000000 1.000000 1.000000 1.000000
46 1 46.343861 181.788811 46.343861 181.788811 -0.000000 0.000000 1.000000 1.000000 1.000000
47 1 105.140628 72.913932 105.140628 72.913932 -0.000000 -0.000000 1.000000 1.000000 1.000000
48 1 199.576551 65.296459 199.576551 65.296459 0.000000 -0.000000 1.000000 1.000000 1.000000
49 1 6.251653 195.440192 241.708394 195.440192 -0.000000 0.000000 1.000000 1.000000 1.000000
50 1 152.637221 146.201191 152.637221 146.201191 0.000002 0.000000 1.000000 1.000000 1.000000
51 1 163.855748 161.084424 163.855748 161.084424 0.000000 -0.000000 1.000000 1.000000 1.000000
52 1 213.050172 116.718141 213.050172 116.718141 0.000000 -0.000000 1.000000 1.000000 1.000000
53 1 13.946747 25.389472 13.946747 25.389472 0.000000 -0.000000 1.000000 1.000000 1.000000
54 1 3.155237 70.500480 238.611978 70.500480 -0.000000 -0.000000 1.000000 1.000000 1.000000
55 1 50.324552 0.349942 50.324552 235.806683 0.000000 -0.000000 1.000000 1.000000 1.000000
56 1 34.719176 158.167551 34.719176 158.167551 0.000000 -0.000000 1.000000 1.000000 1.000000
57 1 108.862856 151.504828 108.862856 151.504828 0.000000 0.000000 1.000000 1.000000 1.000000
58 1 47.497097 12.917903 47.497097 12.917903 -0.000000 0.000000 1.000000 1.000000 1.000000
59 1 66.637692 185.281096 66.637692 185.281096 0.000000 -0.000000 1.000000 1.000000 1.000000
60 1 162.774487 187.332571 162.774487 187.332571 0.000000 -0.000000 1.000000 1.000000 1.000000
61 1 171.890076 209.053582 171.890076 209.053582 0.000000 0.000000 1.000000 1.000000 1.000000
62 1 75.523449 5.719137 75.523449 241.175878 -0.000000 0.000000 1.000000 1.000000 1.000000
63 1 91.621791 122.523173 91.621791 122.523173 0.000000 0.000000 1.000000 1.000000 1.000000
64 1 185.312620 18.644289 185.312620 18.644289 -0.000000 0.000000 1.000000 1.000000 1.000000
65 1 53.902560 217.674676 53.902560 217.674676 0.000000 -0.000000 1.000000 1.000000 1.000000
66 1 157.848660 228.003731 157.848660 228.003731 -0.000000 0.000000 1.000000 1.000000 1.000000
67 1 53.988953 95.453236 53.988953 95.453236 -0.000000 0.000000 1.000000 1.000000 1.000000
68 1 216.879930 100.840860 216.879930 100.840860 0.000000 0.000000 1.000000 1.000000 1.000000
69 1 67.142234 57.716485 67.142234 57.716485 -0.000000 0.000000 1.000000 1.000000 1.000000
70 1 62.341222 13.076367 62.341222 13.076367 -0.000000 0.000000 1.000000 1.000000 1.000000
71 1 184.882640 68.465339 184.882640 68.465339 0.000000 -0.000000 1.000000 1.000000 1.000000
72 1 76.076132 74.789966 76.076132 74.789966 -0.000000 -0.000000 1.000000 1.000000 1.000000
73 1 25.564155 15.420887 25.564155 15.420887 0.000000 0.000000 1.000000 1.000000 1.000000
74 1 171.441275 31.395135 171.441275 31.395135 -0.000000 -0.000000 1.000000 1.000000 1.000000
75 1 178.108792 52.964475 178.108792 52.964475 -0.000000 0.000000 1.000000 1.000000 1.000000
76 1 53.327612 81.753212 53.327612 81.753212 -0.000000 -0.000000 1.000000 1.000000 1.000000
77 1 222.587483 150.622989 222.587483 150.622989 0.000000 0.000000 1.000000 1.000000 1.000000
78 1 136.358590 174.680223 136.358590 174.680223 -0.000000 0.000000 1.000000 1.000000 1.000000
79 1 36.501631 24.935321 36.501631 24.935321 -0.000000 0.000000 1.000000 1.000000 1.000000
80 1 0.203929 195.157486 0.203929 195.157486 -0.000000 0.000000 1.000000 1.000000 1.000000
81 1 148.732304 83.485050 148.732304 83.485050 0.000000 0.000000 1.000000 1.000000 1.000000
82 1 190.969767 190.218200 190.969767 190.218200 0.000000 0.000000 1.000000 1.000000 1.000000
83 1 165.434382 221.173397 165.434382 221.173397 0.000000 0.000000 1.000000 1.000000 1.000000
84 1 43.786970 14.492418 43.786970 249.949159 0.000000 -0.000000 1.000000 1.000000 1.000000
85 1 136.644144 158.112165 136.644144 158.112165 -0.000000 -0.000000 1.000000 1.000000 1.000000
86 1 19.819693 36.188112 19.819693 36.188112 -0.000000 0.000000 1.000000 1.000000 1.000000
87 1 133.893878 208.468856 133.893878 208.468856 -0.000000 0.000000 1.000000 1.000000 1.000000
88 1 17.011305 54.294109 17.011305 54.294109 0.000000 -0.000000 1.000000 1.000000 1.000000
89 1 127.391822 89.425740 127.391822 89.425740 0.000000 0.000000 1.000000 1.000000 1.000000
90 1 130.327293 90.764977 130.327293 90.764977 -0.000000 -0.000000 1.000000 1.000000 1.000000
91 1 29.673363 46.209329 29.673363 46.209329 0.000000 0.000000 1.000000 1.000000 1.000000
92 1 143.999476 88.154570 143.999476 88.154570 -0.000000 -0.000000 1.000000 1.000000 1.000000
93 1 187.103005 172.918384 187.103005 172.918384 0.000000 0.000000 1.000000 1.000000 1.000000
94 1 229.958025 234.532460 -5.498716 234.532460 -0.000000 0.000000 1.000000 1.000000 1.000000
95 1 23.837660 166.170643 23.837660 166.170643 0.000000 -0.000000 1.000000 1.000000 1.000000
96 1 205.378912 164.088754 205.378912 164.088754 -0.000000 -0.000000 1.000000 1.000000 1.000000
97 1 213.181677 202.953520 213.181677 202.953520 -0.000000 0.000000 1.000000 1.000000 1.000000
98 1 91.372159 88.143295 91.372159 88.143295 0.000000 0.000000 1.000000 1.000000 1.000000
99 1 106.389691 86.234665 106.389691 86.234665 -0.000000 0.000000 1.000000 1.000000 1.000000
100 1 50.783481 175.007260 50.783481 175.007260 0.000000 -0.000000 1.000000 1.000000 1.000000
101 1 27.558300 113.001617 27.558300 113.001617 0.000000 0.000000 1.000000 1.000000 1.000000
102 1 94.572526 32.538799 94.572526 32.538799 0.000000 0.000000 1.000000 1.000000 1.000000
103 1 3.546769 26.338180 239.003510 26.338180 -0.000000 0.000000 1.000000 1.000000 1.000000
104 1 43.716697 216.922045 43.716697 216.922045 -0.000000 0.000000 1.000000 1.000000 1.000000
105 1 219.257049 197.777415 219.257049 197.777415 -0.000000 0.000000 1.000000 1.000000 1.000000
106 1 97.848117 189.611482 97.848117 189.611482 -0.000000 0.000000 1.000000 1.000000 1.000000
107 1 113.926948 171.224582 113.926948 171.224582 0.000000 -0.000000 1.000000 1.000000 1.000000
108 1 116.609300 94.502239 116.609300 94.502239 -0.000000 0.000000 1.000000 1.000000 1.000000
109 1 14.645228 180.858898 14.645228 180.858898 -0.000000 -0.000000 1.000000 1.000000 1.000000
110 1 84.513396 64.472308 84.513396 64.472308 -0.000000 -0.000000 1.000000 1.000000 1.000000
111 1 172.872241 135.609978 172.872241 135.609978 0.000000 -0.000000 1.000000 1.000000 1.000000
112 1 12.091355 7.422174 12.091355 7.422174 0.000000 -0.000000 1.000000 1.000000 1.000000
113 1 174.395243 151.414375 174.395243 151.414375 0.000000 0.000000 1.000000 1.000000 1.000000
114 1 208.028279 110.788810 208.028279 110.788810 -0.000000 -0.000000 1.000000 1.000000 1.000000
115 1 82.636268 230.749723 82.636268 230.749723 0.000000 -0.000000 1.000000 1.000000 1.000000
116 1 220.868130 186.004820 220.868130 186.004820 -0.000000 -0.000000 1.000000 1.000000 1.000000
117 1 198.950334 146.323907 198.950334 146.323907 0.000000 0.000000 1.000000 1.000000 1.000000
118 1 19.820780 33.319881 19.820780 33.319881 -0.000000 0.000000 1.000000 1.000000 1.000000
119 1 6.030933 215.988144 241.487674 215.988144 -0.000000 -0.000000 1.000000 1.000000 1.000000
120 1 38.871184 60.294944 38.871184 60.294944 0.000000 0.000000 1.000000 1.000000 1.000000
121 1 135.766931 59.526470 135.766931 59.526470 0.000000 -0.000000 1.000000 1.000000 1.000000
122 1 148.108768 63.528072 148.108768 63.528072 -0.000000 0.000000 1.000000 1.000000 1.000000
123 1 168.476628 38.535107 168.476628 38.535107 0.000000 -0.000000 1.000000 1.000000 1.000000
124 1 119.817180 228.947127 119.817180 228.947127 0.000000 -0.000000 1.000000 1.000000 1.000000
125 1 168.558653 172.072020 168.558653 172.072020 -0.000000 -0.000000 1.000000 1.000000 1.000000
126 1 27.976957 210.083378 27.976957 210.083378 0.000000 0.000000 1.000000 1.000000 1.000000
127 1 43.675132 99.345093 43.675132 99.345093 -0.000000 -0.000000 1.000000 1.000000 1.000000
128 1 160.125723 35.564640 160.125723 35.564640 0.000000 0.000000 1.000000 1.000000 1.000000
129 1 116.323781 36.492078 116.323781 36.492078 -0.000000 0.000000 1.000000 1.000000 1.000000
130 1 21.732212 115.812531 21.732212 115.812531 -0.000000 0.000000 1.000000 1.000000 1.000000
131 1 152.953445 125.300943 152.953445 125.300943 0.000000 0.000000 1.000000 1.000000 1.000000
132 1 187.980852 207.449037 187.980852 207.449037 -0.000000 -0.000000 1.000000 1.000000 1.000000
133 1 10.852619 105.810961 10.852619 105.810961 0.000000 0.000000 1.000000 1.000000 1.000000
134 1 97.959530 137.475329 97.959530 137.475329 -0.000000 0.000000 1.000000 1.000000 1.000000
135 1 138.413188 200.826316 138.413188 200.826316 0.000000 -0.000000 1.000000 1.000000 1.000000
136 1 111.746216 8.118558 111.746216 8.118558 -0.000000 -0.000000 1.000000 1.000000 1.000000
137 1 50.436699 147.677518 50.436699 147.677518 0.000000 0.000000 1.000000 1.000000 1.000000
138 1 221.180080 48.578669 -14.276661 48.578669 0.000000 -0.000000 1.000000 1.000000 1.000000
139 1 178.129498 32.662044 178.129498 32.662044 0.000000 0.000000 1.000000 1.000000 1.000000
140 1 59.096983 190.632174 59.096983 190.632174 0.000000 0.000000 1.000000 1.000000 1.000000
141 1 103.627716 193.122396 103.627716 193.122396 -0.000000 0.000000 1.000000 1.000000 1.000000
142 1 150.002129 204.265652 150.002129 204.265652 0.000000 0.000000 1.000000 1.000000 1.000000
143 1 153.466252 187.927099 153.466252 187.927099 -0.000000 0.000000 1.000000 1.000000 1.000000
144 1 172.186333 94.937009 172.186333 94.937009 0.000000 -0.000000 1.000000 1.000000 1.000000
145 1 175.999173 23.337511 175.999173 23.337511 0.000000 -0.000000 1.000000 1.000000 1.000000
146 1 26.432728 150.304265 26.432728 150.304265 -0.000000 -0.000000 1.000000 1.000000 1.000000
147 1 170.483245 166.923847 170.483245 166.923847 -0.000000 -0.000000 1.000000 1.000000 1.000000
148 1 227.783721 77.240332 227.783721 77.240332 -0.000000 -0.000000 1.000000 1.000000 1.000000
149 1 195.179644 217.788615 195.179644 217.788615 -0.000000 -0.000000 1.000000 1.000000 1.000000
150 1 60.971982 79.179576 60.971982 79.179576 0.000000 -0.000000 1.000000 1.000000 1.000000
151 1 208.684912 182.216609 208.684912 182.216609 -0.000000 0.000000 1.000000 1.000000 1.000000
152 1 142.520779 59.364383 142.520779 59.364383 -0.000000 -0.000000 1.000000 1.000000 1.000000
153 1 163.239931 57.964334 163.239931 57.964334 0.000000 0.000000 1.000000 1.000000 1.000000
154 1 211.452578 234.199717 211.452578 -1.257024 -0.000000 -0.000000 1.000000 1.000000 1.000000
155 1 34.723233 84.785287 34.723233 84.785287 -0.000000 0.000000 1.000000 1.000000 1.000000
156 1 106.649600 209.580563 106.649600 209.580563 -0.000000 0.000000 1.000000 1.000000 1.000000
157 1 23.989398 16.785234 23.989398 16.785234 -0.000000 0.000000 1.000000 1.000000 1.000000
158 1 209.145160 103.315087 209.145160 103.315087 -0.000000 0.000000 1.000000 1.000000 1.000000
159 1 81.654647 221.414385 81.654647 221.414385 -0.000000 -0.000000 1.000000 1.000000 1.000000
160 1 42.947017 231.279183 42.947017 231.279183 0.000000 -0.000000 1.000000 1.000000 1.000000
161 1 196.588810 93.750880 196.588810 93.750880 0.000000 -0.000000 1.000000 1.000000 1.000000
162 1 66.841875 134.568158 66.841875 134.568158 0.000000 -0.000000 1.000000 1.000000 1.000000
163 1 140.251603 205.344559 140.251603 205.344559 -0.000000 0.000000 1.000000 1.000000 1.000000
164 1 113.457778 146.720185 113.457778 146.720185 -0.000000 0.000000 1.000000 1.000000 1.000000
165 1 17.979794 35.046643 17.979794 35.046643 0.000000 -0.000000 1.000000 1.000000 1.000000
166 1 22.827878 117.703899 22.827878 117.703899 -0.000000 -0.000000 1.000000 1.000000 1.000000
167 1 197.731488 25.756062 197.731488 25.756062 -0.000000 -0.000000 1.000000 1.000000 1.000000
168 1 221.278179 18.326474 221.278179 18.326474 0.000000 -0.000000 1.000000 1.000000 1.000000
169 1 136.498794 55.957545 136.498794 55.957545 0.000000 -0.000000 1.000000 1.000000 1.000000
170 1 158.766743 88.119070 158.766743 88.119070 0.000000 -0.000000 1.000000 1.000000 1.000000
171 1 219.916598 231.092379 219.916598 231.092379 0.000000 -0.000000 1.000000 1.000000 1.000000
172 1 201.262158 120.507053 201.262158 120.507053 -0.000000 -0.000000 1.000000 1.000000 1.000000
173 1 204.695225 136.389470 204.695225 136.389470 0.000000 0.000000 1.000000 1.000000 1.000000
174 1 102.520166 34.679257 102.520166 34.679257 -0.000000 -0.000000 1.000000 1.000000 1.000000
175 1 169.979699 133.512798 169.979699 133.512798 -0.000000 0.000000 1.000000 1.000000 1.000000
176 1 33.387517 177.079637 33.387517 177.079637 0.000000 0.000000 1.000000 1.000000 1.000000
177 1 131.663795 63.809090 131.663795 63.809090 0.000000 0.000000 1.000000 1.000000 1.000000
178 1 68.465574 210.428077 68.465574 210.428077 0.000000 0.000000 1.000000 1.000000 1.000000
179 1 196.651476 179.187324 196.651476 179.187324 0.000000 0.000000 1.000000 1.000000 1.000000
180 1 71.008476 47.533993 71.008476 47.533993 -0.000000 0.000000 1.000000 1.000000 1.000000
181 1 228.269576 128.218915 228.269576 128.218915 0.000000 -0.000000 1.000000 1.000000 1.000000
182 1 53.496656 84.116507 53.496656 84.116507 -0.000000 -0.000000 1.000000 1.000000 1.000000
183 1 59.972748 183.784311 59.972748 183.784311 0.000000 -0.000000 1.000000 1.000000 1.000000
184 1 206.032475 11.422773 206.032475 11.422773 0.000000 -0.000000 1.000000 1.000000 1.000000
185 1 117.210519 197.804055 117.210519 197.804055 0.000000 -0.000000 1.000000 1.000000 1.000000
186 1 40.273961 56.831834 40.273961 56.831834 0.000000 0.000000 1.000000 1.000000 1.000000
187 1 25.307979 179.156265 25.307979 179.156265 -0.000000 0.000000 1.000000 1.000000 1.000000
188 1 223.945103 46.404898 223.945103 46.404898 0.000000 0.000000 1.000000 1.000000 1.000000
189 1 191.586988 85.754237 191.586988 85.754237 -0.000000 0.000000 1.000000 1.000000 1.000000
190 1 121.416051 91.670394 121.416051 91.670394 -0.000000 0.000000 1.000000 1.000000 1.000000
191 1 99.917632 221.402440 99.917632 221.402440 -0.000000 0.000000 1.000000 1.000000 1.000000
192 1 84.577327 130.250792 84.577327 130.250792 -0.000000 0.000000 1.000000 1.000000 1.000000
193 1 217.713728 106.335924 217.713728 106.335924 -0.000000 -0.000000 1.000000 1.000000 1.000000
194 1 4.942378 71.729183 240.399119 71.729183 -0.000000 0.000000 1.000000 1.000000 1.000000
195 1 179.976620 5.024410 179.976620 5.024410 0.000000 -0.000000 1.000000 1.000000 1.000000
196 1 153.806941 54.390598 153.806941 54.390598 -0.000000 -0.000000 1.000000 1.000000 1.000000
197 1 94.196664 96.857110 94.196664 96.857110 -0.000000 -0.000000 1.000000 1.000000 1.000000
198 1 158.591872 8.108148 158.591872 8.108148 -0.000000 -0.000000 1.000000 1.000000 1.000000
199 1 206.223409 100.048596 206.223409 100.048596 -0.000000 0.000000 1.000000 1.000000 1.000000
200 1 14.458464 174.214939 14.458464 174.214939 0.000000 0.000000 1.000000 1.000000 1.000000
201 1 146.495496 86.510748 146.495496 86.510748 0.000000 -0.000000 1.000000 1.000000 1.000000
202 1 219.987981 216.667253 219.987981 216.667253 -0.000000 0.000000 1.000000 1.000000 1.000000
203 1 112.601989 36.760226 112.601989 36.760226 -0.000000 0.000000 1.000000 1.000000 1.000000
204 1 204.084800 121.990400 204.084800 121.990400 -0.000000 -0.000000 1.000000 1.000000 1.000000
205 1 187.968643 190.645960 187.968643 190.645960 0.000000 -0.000000 1.000000 1.000000 1.000000
206 1 28.006846 151.731168 28.006846 151.731168 -0.000000 -0.000000 1.000000 1.000000 1.000000
207 1 143.452464 157.499639 143.452464 157.499639 -0.000000 0.000000 1.000000 1.000000 1.000000
208 1 210.911255 25.689877 210.911255 25.689877 0.000000 -0.000000 1.000000 1.000000 1.000000
209 1 218.110034 65.386182 -17.346707 65.386182 -0.000000 0.000000 1.000000 1.000000 1.000000
210 1 83.967278 157.601917 83.967278 157.601917 -0.000000 -0.000000 1.000000 1.000000 1.000000
211 1 206.272744 7.403793 206.272744 7.403793 -0.000000 -0.000000 1.000000 1.000000 1.000000
212 1 135.040435 65.977700 135.040435 65.977700 0.000000 0.000000 1.000000 1.000000 1.000000
213 1 208.338709 141.583632 208.338709 141.583632 0.000000 -0.000000 1.000000 1.000000 1.000000
214 1 23.907911 96.420524 23.907911 96.420524 -0.000000 0.000000 1.000000 1.000000 1.000000
215 1 114.365747 234.458708 114.365747 234.458708 0.000000 -0.000000 1.000000 1.000000 1.000000
216 1 115.808469 225.851387 115.808469 225.851387 -0.000000 -0.000000 1.000000 1.000000 1.000000
217 1 190.615994 70.741096 190.615994 70.741096 0.000000 -0.000000 1.000000 1.000000 1.000000
218 1 69.171572 229.496367 69.171572 -5.960374 -0.000000 -0.000000 1.000000 1.000000 1.000000
219 1 193.298449 42.431496 193.298449 42.431496 0.000000 0.000000 1.000000 1.000000 1.000000
220 1 3.192004 110.234181 238.648745 110.234181 0.000000 0.000000 1.000000 1.000000 1.000000
221 1 143.840076 81.793526 143.840076 81.793526 -0.000000 0.000000 1.000000 1.000000 1.000000
222 1 25.466541 76.628139 25.466541 76.628139 -0.000000 -0.000000 1.000000 1.000000 1.000000
223 1 60.690103 125.771880 60.690103 125.771880 -0.000000 0.000000 1.000000 1.000000 1.000000
224 1 102.124760 3.422962 102.124760 3.422962 0.000000 0.000000 1.000000 1.000000 1.000000
225 1 22.193376 54.347342 22.193376 54.347342 -0.000001 0.000001 1.000000 1.000000 1.000000
226 1 177.616872 190.991430 177.616872 190.991430 -0.000000 0.000000 1.000000 1.000000 1.000000
227 1 43.179144 7.103641 43.179144 7.103641 0.000000 0.000000 1.000000 1.000000 1.000000
228 1 21.454210 71.862178 21.454210 71.862178 0.000000 0.000000 1.000000 1.000000 1.000000
229 1 76.348462 109.410946 76.348462 109.410946 -0.000000 -0.000000 1.000000 1.000000 1.000000
230 1 36.470340 119.632848 36.470340 119.632848 -0.000000 -0.000000 1.000000 1.000000 1.000000
231 1 11.756542 205.926312 11.756542 205.926312 0.000001 0.000000 1.000000 1.000000 1.000000
232 1 192.817843 146.066823 192.817843 146.066823 0.000000 -0.000000 1.000000 1.000000 1.000000
233 1 96.237810 56.026963 96.237810 56.026963 0.000000 -0.000000 1.000000 1.000000 1.000000
234 1 57.221111 219.948302 57.221111 219.948302 0.000000 -0.000000 1.000000 1.000000 1.000000
235 1 52.939824 122.708099 52.939824 122.708099 -0.000000 -0.000000 1.000000 1.000000 1.000000
236 1 20.893359 106.911995 20.893359 106.911995 -0.000000 0.000000 1.000000 1.000000 1.000000
237 1 109.435016 93.793479 109.435016 93.793479 0.000000 0.000000 1.000000 1.000000 1.000000
238 1 203.857482 86.793096 203.857482 86.793096 0.000000 0.000000 1.000000 1.000000 1.000000
239 1 75.248517 33.579270 75.248517 33.579270 -0.000000 -0.000000 1.000000 1.000000 1.000000
240 1 224.446005 22.441883 224.446005 22.441883 0.000000 0.000000 1.000000 1.000000 1.000000
241 1 228.660214 105.601509 228.660214 105.601509 -0.000000 0.000000 1.000000 1.000000 1.000000
242 1 231.196537 220.043252 -4.260204 220.043252 0.000000 0.000000 1.000000 1.000000 1.000000
243 1 14.875270 186.996058 14.875270 186.996058 -0.000000 -0.000000 1.000000 1.000000 1.000000
244 1 71.185039 152.353717 71.185039 152.353717 -0.000000 -0.000000 1.000000 1.000000 1.000000
245 1 9.637315 212.587091 9.637315 212.587091 -0.000000 0.000000 1.000000 1.000000 1.000000
246 1 107.656981 60.834067 107.656981 60.834067 0.000000 0.000000 1.000000 1.000000 1.000000
247 1 169.970123 76.417851 169.970123 76.417851 -0.000000 0.000000 1.000000 1.000000 1.000000
248 1 125.562848 152.323381 125.562848 152.323381 -0.000000 0.000000 1.000000 1.000000 1.000000
249 1 69.665618 33.111051 69.665618 33.111051 -0.000000 -0.000000 1.000000 1.000000 1.000000
250 1 89.728788 54.711908 89.728788 54.711908 0.000000 0.000000 1.000000 1.000000 1.000000
251 1 0.824435 9.713071 236.281176 9.713071 0.000000 0.000000 1.000000 1.000000 1.000000
252 1 42.817775 189.864750 42.817775 189.864750 -0.000000 0.000000 1.000000 1.000000 1.000000
253 1 139.502919 118.062936 139.502919 118.062936 -0.000000 -0.000000 1.000000 1.000000 1.000000
254 1 87.757091 62.627711 87.757091 62.627711 -0.000000 -0.000000 1.000000 1.000000 1.000000
255 1 219.775361 110.203877 219.775361 110.203877 -0.000000 0.000000 1.000000 1.000000 1.000000
256 1 1.166543 226.751630 1.166543 226.751630 -0.000000 0.000000 1.000000 1.000000 1.000000
257 1 142.007334 194.640976 142.007334 194.640976 -0.000000 -0.000000 1.000000 1.000000 1.000000
258 1 173.112238 164.903953 173.112238 164.903953 0.000000 -0.000000 1.000000 1.000000 1.000000
259 1 183.275063 53.956600 183.275063 53.956600 -0.000000 0.000000 1.000000 1.000000 1.000000
260 1 137.839866 182.711598 137.839866 182.711598 -0.000000 0.000000 1.000000 1.000000 1.000000
261 1 150.200249 66.755043 150.200249 66.755043 -0.000000 0.000000 1.000000 1.000000 1.000000
262 1 12.265555 76.973050 247.722296 76.973050 0.000000 0.000000 1.000000 1.000000 1.000000
263 1 86.771257 86.286928 86.771257 86.286928 0.000000 -0.000000 1.000000 1.000000 1.000000
264 1 11.143198 184.382493 246.599939 184.382493 -0.000000 -0.000000 1.000000 1.000000 1.000000
265 1 226.132923 216.422541 -9.323818 216.422541 0.000000 -0.000000 1.000000 1.000000 1.000000
266 1 136.299336 2.685809 136.299336 2.685809 -0.000000 0.000000 1.000000 1.000000 1.000000
267 1 197.417206 37.075666 197.417206 37.075666 -0.000000 -0.000000 1.000000 1.000000 1.000000
268 1 214.275645 200.017273 214.275645 200.017273 0.000000 -0.000000 1.000000 1.000000 1.000000
269 1 195.783922 225.150622 195.783922 225.150622 0.000000 0.000000 1.000000 1.000000 1.000000
270 1 189.117217 128.433466 189.117217 128.433466 -0.000000 -0.000000 1.000000 1.000000 1.000000
271 1 91.655571 20.806038 91.655571 20.806038 0.000000 0.000000 1.000000 1.000000 1.000000
272 1 164.721358 84.086790 164.721358 84.086790 -0.000000 -0.000000 1.000000 1.000000 1.000000
273 1 31.888871 62.016639 31.888871 62.016639 -0.000000 0.000000 1.000000 1.000000 1.000000
274 1 234.673417 204.052141 -0.783324 204.052141 0.000000 -0.000000 1.000000 1.000000 1.000000
275 1 198.570430 186.108909 198.570430 186.108909 -0.000000 -0.000000 1.000000 1.000000 1.000000
276 1 71.771573 41.547899 71.771573 41.547899 -0.000000 -0.000000 1.000000 1.000000 1.000000
277 1 19.977885 171.137288 19.977885 171.137288 0.000000 -0.000000 1.000000 1.000000 1.000000
278 1 114.337744 214.003841 114.337744 214.003841 0.000000 0.000000 1.000000 1.000000 1.000000
279 1 210.484033 51.616397 210.484033 51.616397 -0.000000 0.000000 1.000000 1.000000 1.000000
280 1 199.111257 199.788298 199.111257 199.788298 0.000000 0.000000 1.000000 1.000000 1.000000
281 1 159.031702 122.869345 159.031702 122.869345 0.000000 0.000000 1.000000 1.000000 1.000000
282 1 184.658760 132.012050 184.658760 132.012050 0.000000 0.000000 1.000000 1.000000 1.000000
283 1 195.848213 113.985756 195.848213 113.985756 0.000000 0.000000 1.000000 1.000000 1.000000
284 1 83.405642 162.189739 83.405642 162.189739 0.000000 0.000000 1.000000 1.000000 1.000000
285 1 43.877857 149.725031 43.877857 149.725031 0.000000 -0.000000 1.000000 1.000000 1.000000
286 1 160.656361 161.263206 160.656361 161.263206 0.000000 0.000000 1.000000 1.000000 1.000000
287 1 84.436469 169.089503 84.436469 169.089503 -0.000000 0.000000 1.000000 1.000000 1.000000
288 1 194.932557 123.291526 194.932557 123.291526 0.000000 -0.000000 1.000000 1.000000 1.000000
289 1 159.294251 33.102752 159.294251 33.102752 -0.000000 0.000000 1.000000 1.000000 1.000000
290 1 5.496880 217.944640 5.496880 217.944640 0.000000 -0.000000 1.000000 1.000000 1.000000
291 1 192.278300 72.433640 192.278300 72.433640 -0.000000 -0.000000 1.000000 1.000000 1.000000
292 1 10.317907 127.044728 10.317907 127.044728 -0.000000 -0.000000 1.000000 1.000000 1.000000
293 1 154.973470 15.107207 154.973470 15.107207 -0.000000 -0.000000 1.000000 1.000000 1.000000
294 1 5.399371 118.563209 5.399371 118.563209 0.000000 0.000000 1.000000 1.000000 1.000000
295 1 66.274302 107.914620 66.274302 107.914620 -0.000000 0.000000 1.000000 1.000000 1.000000
296 1 165.612677 154.840009 165.612677 154.840009 0.000000 0.000000 1.000000 1.000000 1.000000
297 1 189.331047 45.405329 189.331047 45.405329 -0.000000 -0.000000 1.000000 1.000000 1.000000
298 1 169.785114 128.127543 169.785114 128.127543 0.000000 -0.000000 1.000000 1.000000 1.000000
299 1 13.851521 133.951204 13.851521 133.951204 -0.000000 0.000000 1.000000 1.000000 1.000000
300 1 150.415890 15.035907 150.415890 15.035907 -0.000000 -0.000000 1.000000 1.000000 1.000000
301 1 189.604113 47.571916 189.604113 47.571916 0.000000 0.000000 1.000000 1.000000 1.000000
302 1 145.994389 185.750877 145.994389 185.750877 -0.000000 -0.000000 1.000000 1.000000 1.000000
303 1 4.578640 34.140558 4.578640 34.140558 -0.000000 -0.000000 1.000000 1.000000 1.000000
304 1 191.008178 213.973284 191.008178 213.973284 0.000000 0.000000 1.000000 1.000000 1.000000
305 1 135.383240 128.664085 135.383240 128.664085 -0.000000 0.000000 1.000000 1.000000 1.000000
306 1 124.942253 20.158642 124.942253 20.158642 -0.000000 0.000000 1.000000 1.000000 1.000000
307 1 101.313819 24.772359 101.313819 24.772359 -0.000000 -0.000000 1.000000 1.000000 1.000000
308 1 226.907761 219.573983 226.907761 219.573983 -0.000000 0.000000 1.000000 1.000000 1.000000
309 1 166.076749 214.824613 166.076749 214.824613 0.000000 -0.000000 1.000000 1.000000 1.000000
310 1 199.094140 129.453626 199.094140 129.453626 -0.000000 -0.000000 1.000000 1.000000 1.000000
311 1 150.732109 142.038926 150.732109 142.038926 0.000000 -0.000000 1.000000 1.000000 1.000000
312 1 206.999782 195.986920 206.999782 195.986920 0.000000 -0.000000 1.000000 1.000000 1.000000
313 1 163.445374 68.883265 163.445374 68.883265 -0.000000 0.000000 1.000000 1.000000 1.000000
314 1 66.722570 128.530658 66.722570 128.530658 0.000000 -0.000000 1.000000 1.000000 1.000000
315 1 36.072616 56.234326 36.072616 56.234326 -0.000000 0.000000 1.000000 1.000000 1.000000
316 1 163.539216 131.732300 163.539216 131.732300 0.000000 0.000000 1.000000 1.000000 1.000000