ITEM: TIMESTEP
0
ITEM: NUMBER OF ATOMS
2
ITEM: BOX BOUNDS pp pp ff
0.0000000000000000e+00 1.1842500000000000e-01
0.0000000000000000e+00 1.1842500000000000e-01
-5.0000000000000000e+00 5.0000000000000000e+00
ITEM: ATOMS type x y z vx vy vz radius id
1 0.00125 0.0125 0.00185 1 0 2 0.00125 1
1 0.0155 0.0125 0.00125 -1 0 -2 0.00125 2
ITEM: TIMESTEP
10
ITEM: NUMBER OF ATOMS
2
ITEM: BOX BOUNDS pp pp ff
0.0000000000000000e+00 1.1842500000000000e-01
0.0000000000000000e+00 1.1842500000000000e-01
-5.0000000000000000e+00 5.0000000000000000e+00
ITEM: ATOMS type x y z vx vy vz radius id
1 0.00129217 0.0125 0.00193432 1 0 1.99959 0.00125 1
1 0.0154606 0.0125 0.00117274 -0.780817 0 -1.47513 0.00125 2
ITEM: TIMESTEP
20
ITEM: NUMBER OF ATOMS
2
ITEM: BOX BOUNDS pp pp ff
0.0000000000000000e+00 1.1842500000000000e-01
0.0000000000000000e+00 1.1842500000000000e-01
-5.0000000000000000e+00 5.0000000000000000e+00
ITEM: ATOMS type x y z vx vy vz radius id
1 0.00133433 0.0125 0.00201863 1 0 1.99917 0.00125 1
1 0.0154375 0.0125 0.00113964 -0.373741 0 -0.00250491 0.00125 2
ITEM: TIMESTEP
30
ITEM: NUMBER OF ATOMS
2
ITEM: BOX BOUNDS pp pp ff
0.0000000000000000e+00 1.1842500000000000e-01
0.0000000000000000e+00 1.1842500000000000e-01
-5.0000000000000000e+00 5.0000000000000000e+00
ITEM: ATOMS type x y z vx vy vz radius id
1 0.0013765 0.0125 0.00210291 1 0 1.99876 0.00125 1
1 0.0154189 0.0125 0.00117023 -0.616138 0 1.32054 0.00125 2
ITEM: TIMESTEP
40
ITEM: NUMBER OF ATOMS
2
ITEM: BOX BOUNDS pp pp ff
0.0000000000000000e+00 1.1842500000000000e-01
0.0000000000000000e+00 1.1842500000000000e-01
-5.0000000000000000e+00 5.0000000000000000e+00
ITEM: ATOMS type x y z vx vy vz radius id
1 0.00141866 0.0125 0.00218718 1 0 1.99835 0.00125 1
1 0.0153874 0.0125 0.00123703 -0.803856 0 1.6954 0.00125 2
ITEM: TIMESTEP
50
ITEM: NUMBER OF ATOMS
2
ITEM: BOX BOUNDS pp pp ff
0.0000000000000000e+00 1.1842500000000000e-01
0.0000000000000000e+00 1.1842500000000000e-01
-5.0000000000000000e+00 5.0000000000000000e+00
ITEM: ATOMS type x y z vx vy vz radius id
1 0.00146083 0.0125 0.00227144 1 0 1.99793 0.00125 1
1 0.0153535 0.0125 0.0013084 -0.80341 0 1.69232 0.00125 2
ITEM: TIMESTEP
60
ITEM: NUMBER OF ATOMS
2
ITEM: BOX BOUNDS pp pp ff
0.0000000000000000e+00 1.1842500000000000e-01
0.0000000000000000e+00 1.1842500000000000e-01
-5.0000000000000000e+00 5.0000000000000000e+00
ITEM: ATOMS type x y z vx vy vz radius id
1 0.00150299 0.0125 0.00235567 1 0 1.99752 0.00125 1
1 0.0153196 0.0125 0.00137975 -0.80341 0 1.6919 0.00125 2
ITEM: TIMESTEP
70
ITEM: NUMBER OF ATOMS
2
ITEM: BOX BOUNDS pp pp ff
0.0000000000000000e+00 1.1842500000000000e-01
0.0000000000000000e+00 1.1842500000000000e-01
-5.0000000000000000e+00 5.0000000000000000e+00
ITEM: ATOMS type x y z vx vy vz radius id
1 0.00154516 0.0125 0.00243989 1 0 1.99711 0.00125 1
1 0.0152857 0.0125 0.00145108 -0.80341 0 1.69149 0.00125 2
ITEM: TIMESTEP
80
ITEM: NUMBER OF ATOMS
2
ITEM: BOX BOUNDS pp pp ff
0.0000000000000000e+00 1.1842500000000000e-01
0.0000000000000000e+00 1.1842500000000000e-01
-5.0000000000000000e+00 5.0000000000000000e+00
ITEM: ATOMS type x y z vx vy vz radius id
1 0.00158732 0.0125 0.00252409 1 0 1.99669 0.00125 1
1 0.0152518 0.0125 0.0015224 -0.80341 0 1.69108 0.00125 2
ITEM: TIMESTEP
90
ITEM: NUMBER OF ATOMS
2
ITEM: BOX BOUNDS pp pp ff
0.0000000000000000e+00 1.1842500000000000e-01
0.0000000000000000e+00 1.1842500000000000e-01
-5.0000000000000000e+00 5.0000000000000000e+00
ITEM: ATOMS type x y z vx vy vz radius id
1 0.00162949 0.0125 0.00260827 1 0 1.99628 0.00125 1
1 0.015218 0.0125 0.00159369 -0.80341 0 1.69066 0.00125 2
ITEM: TIMESTEP
100
ITEM: NUMBER OF ATOMS
2
ITEM: BOX BOUNDS pp pp ff
0.0000000000000000e+00 1.1842500000000000e-01
0.0000000000000000e+00 1.1842500000000000e-01
-5.0000000000000000e+00 5.0000000000000000e+00
ITEM: ATOMS type x y z vx vy vz radius id
1 0.00167165 0.0125 0.00269244 1 0 1.99587 0.00125 1
1 0.0151841 0.0125 0.00166497 -0.80341 0 1.69025 0.00125 2
ITEM: TIMESTEP
110
ITEM: NUMBER OF ATOMS
2
ITEM: BOX BOUNDS pp pp ff
0.0000000000000000e+00 1.1842500000000000e-01
0.0000000000000000e+00 1.1842500000000000e-01
-5.0000000000000000e+00 5.0000000000000000e+00
ITEM: ATOMS type x y z vx vy vz radius id
1 0.00171382 0.0125 0.00277658 1 0 1.99545 0.00125 1
1 0.0151502 0.0125 0.00173623 -0.80341 0 1.68984 0.00125 2
ITEM: TIMESTEP
120
ITEM: NUMBER OF ATOMS
2
ITEM: BOX BOUNDS pp pp ff
0.0000000000000000e+00 1.1842500000000000e-01
0.0000000000000000e+00 1.1842500000000000e-01
-5.0000000000000000e+00 5.0000000000000000e+00
ITEM: ATOMS type x y z vx vy vz radius id
1 0.00175598 0.0125 0.00286071 1 0 1.99504 0.00125 1
1 0.0151163 0.0125 0.00180747 -0.80341 0 1.68942 0.00125 2
ITEM: TIMESTEP
130
ITEM: NUMBER OF ATOMS
2
ITEM: BOX BOUNDS pp pp ff
0.0000000000000000e+00 1.1842500000000000e-01
0.0000000000000000e+00 1.1842500000000000e-01
-5.0000000000000000e+00 5.0000000000000000e+00
ITEM: ATOMS type x y z vx vy vz radius id
1 0.00179815 0.0125 0.00294483 1 0 1.99463 0.00125 1
1 0.0150825 0.0125 0.0018787 -0.80341 0 1.68901 0.00125 2
ITEM: TIMESTEP
140
ITEM: NUMBER OF ATOMS
2
ITEM: BOX BOUNDS pp pp ff
0.0000000000000000e+00 1.1842500000000000e-01
0.0000000000000000e+00 1.1842500000000000e-01
-5.0000000000000000e+00 5.0000000000000000e+00
ITEM: ATOMS type x y z vx vy vz radius id
1 0.00184031 0.0125 0.00302892 1 0 1.99421 0.00125 1
1 0.0150486 0.0125 0.00194991 -0.80341 0 1.6886 0.00125 2
ITEM: TIMESTEP
150
ITEM: NUMBER OF ATOMS
2
ITEM: BOX BOUNDS pp pp ff
0.0000000000000000e+00 1.1842500000000000e-01
0.0000000000000000e+00 1.1842500000000000e-01
-5.0000000000000000e+00 5.0000000000000000e+00
ITEM: ATOMS type x y z vx vy vz radius id
1 0.00188248 0.0125 0.003113 1 0 1.9938 0.00125 1
1 0.0150147 0.0125 0.0020211 -0.80341 0 1.68818 0.00125 2
ITEM: TIMESTEP
160
ITEM: NUMBER OF ATOMS
2
ITEM: BOX BOUNDS pp pp ff
0.0000000000000000e+00 1.1842500000000000e-01
0.0000000000000000e+00 1.1842500000000000e-01
-5.0000000000000000e+00 5.0000000000000000e+00
ITEM: ATOMS type x y z vx vy vz radius id
1 0.00192464 0.0125 0.00319706 1 0 1.99339 0.00125 1
1 0.0149808 0.0125 0.00209228 -0.80341 0 1.68777 0.00125 2
ITEM: TIMESTEP
170
ITEM: NUMBER OF ATOMS
2
ITEM: BOX BOUNDS pp pp ff
0.0000000000000000e+00 1.1842500000000000e-01
0.0000000000000000e+00 1.1842500000000000e-01
-5.0000000000000000e+00 5.0000000000000000e+00
ITEM: ATOMS type x y z vx vy vz radius id
1 0.00196677 0.0125 0.00328096 0.987596 0 1.95327 0.00125 1
1 0.014947 0.0125 0.00216343 -0.80341 0 1.68736 0.00125 2
ITEM: TIMESTEP
180
ITEM: NUMBER OF ATOMS
2
ITEM: BOX BOUNDS pp pp ff
0.0000000000000000e+00 1.1842500000000000e-01
0.0000000000000000e+00 1.1842500000000000e-01
-5.0000000000000000e+00 5.0000000000000000e+00
ITEM: ATOMS type x y z vx vy vz radius id
1 0.00200258 0.0125 0.00334986 0.635205 0 1.12517 0.00125 1
1 0.0149131 0.0125 0.00223457 -0.80341 0 1.68694 0.00125 2
ITEM: TIMESTEP
190
ITEM: NUMBER OF ATOMS
2
ITEM: BOX BOUNDS pp pp ff
0.0000000000000000e+00 1.1842500000000000e-01
0.0000000000000000e+00 1.1842500000000000e-01
-5.0000000000000000e+00 5.0000000000000000e+00
ITEM: ATOMS type x y z vx vy vz radius id
1 0.0020214 0.0125 0.00336531 0.37067 0 -0.415317 0.00125 1
1 0.0148792 0.0125 0.00230569 -0.80341 0 1.68653 0.00125 2
ITEM: TIMESTEP
200
ITEM: NUMBER OF ATOMS
2
ITEM: BOX BOUNDS pp pp ff
0.0000000000000000e+00 1.1842500000000000e-01
0.0000000000000000e+00 1.1842500000000000e-01
-5.0000000000000000e+00 5.0000000000000000e+00
ITEM: ATOMS type x y z vx vy vz radius id
1 0.00204371 0.0125 0.00332202 0.716692 0 -1.47453 0.00125 1
1 0.0148453 0.0125 0.0023768 -0.80341 0 1.68612 0.00125 2
ITEM: TIMESTEP
210
ITEM: NUMBER OF ATOMS
2
ITEM: BOX BOUNDS pp pp ff
0.0000000000000000e+00 1.1842500000000000e-01
0.0000000000000000e+00 1.1842500000000000e-01
-5.0000000000000000e+00 5.0000000000000000e+00
ITEM: ATOMS type x y z vx vy vz radius id
1 0.00207676 0.0125 0.00325419 0.801436 0 -1.64218 0.00125 1
1 0.0148115 0.0125 0.00244788 -0.80341 0 1.6857 0.00125 2
ITEM: TIMESTEP
220
ITEM: NUMBER OF ATOMS
2
ITEM: BOX BOUNDS pp pp ff
0.0000000000000000e+00 1.1842500000000000e-01
0.0000000000000000e+00 1.1842500000000000e-01
-5.0000000000000000e+00 5.0000000000000000e+00
ITEM: ATOMS type x y z vx vy vz radius id
1 0.00211056 0.0125 0.00318494 0.801436 0 -1.64259 0.00125 1
1 0.0147776 0.0125 0.00251895 -0.80341 0 1.68529 0.00125 2
ITEM: TIMESTEP
230
ITEM: NUMBER OF ATOMS
2
ITEM: BOX BOUNDS pp pp ff
0.0000000000000000e+00 1.1842500000000000e-01
0.0000000000000000e+00 1.1842500000000000e-01
-5.0000000000000000e+00 5.0000000000000000e+00
ITEM: ATOMS type x y z vx vy vz radius id
1 0.00214435 0.0125 0.00311567 0.801436 0 -1.643 0.00125 1
1 0.0147437 0.0125 0.00259001 -0.80341 0 1.68488 0.00125 2
ITEM: TIMESTEP
240
ITEM: NUMBER OF ATOMS
2
ITEM: BOX BOUNDS pp pp ff
0.0000000000000000e+00 1.1842500000000000e-01
0.0000000000000000e+00 1.1842500000000000e-01
-5.0000000000000000e+00 5.0000000000000000e+00
ITEM: ATOMS type x y z vx vy vz radius id
1 0.00217814 0.0125 0.00304639 0.801436 0 -1.64342 0.00125 1
1 0.0147098 0.0125 0.00266104 -0.80341 0 1.68447 0.00125 2
ITEM: TIMESTEP
250
ITEM: NUMBER OF ATOMS
2
ITEM: BOX BOUNDS pp pp ff
0.0000000000000000e+00 1.1842500000000000e-01
0.0000000000000000e+00 1.1842500000000000e-01
-5.0000000000000000e+00 5.0000000000000000e+00
ITEM: ATOMS type x y z vx vy vz radius id
1 0.00221194 0.0125 0.00297708 0.801436 0 -1.64383 0.00125 1
1 0.014676 0.0125 0.00273206 -0.80341 0 1.68405 0.00125 2
ITEM: TIMESTEP
260
ITEM: NUMBER OF ATOMS
2
ITEM: BOX BOUNDS pp pp ff
0.0000000000000000e+00 1.1842500000000000e-01
0.0000000000000000e+00 1.1842500000000000e-01
-5.0000000000000000e+00 5.0000000000000000e+00
ITEM: ATOMS type x y z vx vy vz radius id
1 0.00224573 0.0125 0.00290776 0.801436 0 -1.64424 0.00125 1
1 0.0146421 0.0125 0.00280306 -0.80341 0 1.68364 0.00125 2
ITEM: TIMESTEP
270
ITEM: NUMBER OF ATOMS
2
ITEM: BOX BOUNDS pp pp ff
0.0000000000000000e+00 1.1842500000000000e-01
0.0000000000000000e+00 1.1842500000000000e-01
-5.0000000000000000e+00 5.0000000000000000e+00
ITEM: ATOMS type x y z vx vy vz radius id
1 0.00227952 0.0125 0.00283842 0.801436 0 -1.64466 0.00125 1
1 0.0146082 0.0125 0.00287404 -0.80341 0 1.68323 0.00125 2
ITEM: TIMESTEP
280
ITEM: NUMBER OF ATOMS
2
ITEM: BOX BOUNDS pp pp ff
0.0000000000000000e+00 1.1842500000000000e-01
0.0000000000000000e+00 1.1842500000000000e-01
-5.0000000000000000e+00 5.0000000000000000e+00
ITEM: ATOMS type x y z vx vy vz radius id
1 0.00231331 0.0125 0.00276907 0.801436 0 -1.64507 0.00125 1
1 0.0145743 0.0125 0.00294501 -0.80341 0 1.68281 0.00125 2
ITEM: TIMESTEP
290
ITEM: NUMBER OF ATOMS
2
ITEM: BOX BOUNDS pp pp ff
0.0000000000000000e+00 1.1842500000000000e-01
0.0000000000000000e+00 1.1842500000000000e-01
-5.0000000000000000e+00 5.0000000000000000e+00
ITEM: ATOMS type x y z vx vy vz radius id
1 0.00234711 0.0125 0.00269969 0.801436 0 -1.64548 0.00125 1
1 0.0145405 0.0125 0.00301595 -0.80341 0 1.6824 0.00125 2
ITEM: TIMESTEP
300
ITEM: NUMBER OF ATOMS
2
ITEM: BOX BOUNDS pp pp ff
0.0000000000000000e+00 1.1842500000000000e-01
0.0000000000000000e+00 1.1842500000000000e-01
-5.0000000000000000e+00 5.0000000000000000e+00
ITEM: ATOMS type x y z vx vy vz radius id
1 0.0023809 0.0125 0.0026303 0.801436 0 -1.6459 0.00125 1
1 0.0145066 0.0125 0.00308688 -0.80341 0 1.68199 0.00125 2
ITEM: TIMESTEP
310
ITEM: NUMBER OF ATOMS
2
ITEM: BOX BOUNDS pp pp ff
0.0000000000000000e+00 1.1842500000000000e-01
0.0000000000000000e+00 1.1842500000000000e-01
-5.0000000000000000e+00 5.0000000000000000e+00
ITEM: ATOMS type x y z vx vy vz radius id
1 0.00241469 0.0125 0.00256089 0.801436 0 -1.64631 0.00125 1
1 0.0144727 0.0125 0.0031578 -0.80341 0 1.68157 0.00125 2
ITEM: TIMESTEP
320
ITEM: NUMBER OF ATOMS
2
ITEM: BOX BOUNDS pp pp ff
0.0000000000000000e+00 1.1842500000000000e-01
0.0000000000000000e+00 1.1842500000000000e-01
-5.0000000000000000e+00 5.0000000000000000e+00
ITEM: ATOMS type x y z vx vy vz radius id
1 0.00244848 0.0125 0.00249147 0.801436 0 -1.64672 0.00125 1
1 0.0144388 0.0125 0.00322869 -0.80341 0 1.68116 0.00125 2
ITEM: TIMESTEP
330
ITEM: NUMBER OF ATOMS
2
ITEM: BOX BOUNDS pp pp ff
0.0000000000000000e+00 1.1842500000000000e-01
0.0000000000000000e+00 1.1842500000000000e-01
-5.0000000000000000e+00 5.0000000000000000e+00
ITEM: ATOMS type x y z vx vy vz radius id
1 0.00248228 0.0125 0.00242203 0.801436 0 -1.64713 0.00125 1
1 0.014405 0.0125 0.00329938 -0.782922 0 1.63918 0.00125 2
ITEM: TIMESTEP
340
ITEM: NUMBER OF ATOMS
2
ITEM: BOX BOUNDS pp pp ff
0.0000000000000000e+00 1.1842500000000000e-01
0.0000000000000000e+00 1.1842500000000000e-01
-5.0000000000000000e+00 5.0000000000000000e+00
ITEM: ATOMS type x y z vx vy vz radius id
1 0.00251607 0.0125 0.00235256 0.801436 0 -1.64755 0.00125 1
1 0.0143776 0.0125 0.00335735 -0.446475 0 0.963359 0.00125 2
ITEM: TIMESTEP
350
ITEM: NUMBER OF ATOMS
2
ITEM: BOX BOUNDS pp pp ff
0.0000000000000000e+00 1.1842500000000000e-01
0.0000000000000000e+00 1.1842500000000000e-01
-5.0000000000000000e+00 5.0000000000000000e+00
ITEM: ATOMS type x y z vx vy vz radius id
1 0.00254986 0.0125 0.00228309 0.801436 0 -1.64796 0.00125 1
1 0.0143686 0.0125 0.00337232 -0.0652959 0 -0.276056 0.00125 2
ITEM: TIMESTEP
360
ITEM: NUMBER OF ATOMS
2
ITEM: BOX BOUNDS pp pp ff
0.0000000000000000e+00 1.1842500000000000e-01
0.0000000000000000e+00 1.1842500000000000e-01
-5.0000000000000000e+00 5.0000000000000000e+00
ITEM: ATOMS type x y z vx vy vz radius id
1 0.00258366 0.0125 0.00221359 0.801436 0 -1.64837 0.00125 1
1 0.014362 0.0125 0.00333913 -0.306529 0 -1.17507 0.00125 2
ITEM: TIMESTEP
370
ITEM: NUMBER OF ATOMS
2
ITEM: BOX BOUNDS pp pp ff
0.0000000000000000e+00 1.1842500000000000e-01
0.0000000000000000e+00 1.1842500000000000e-01
-5.0000000000000000e+00 5.0000000000000000e+00
ITEM: ATOMS type x y z vx vy vz radius id
1 0.00261745 0.0125 0.00214408 0.801436 0 -1.64879 0.00125 1
1 0.0143462 0.0125 0.00328381 -0.397769 0 -1.35448 0.00125 2
ITEM: TIMESTEP
380
ITEM: NUMBER OF ATOMS
2
ITEM: BOX BOUNDS pp pp ff
0.0000000000000000e+00 1.1842500000000000e-01
0.0000000000000000e+00 1.1842500000000000e-01
-5.0000000000000000e+00 5.0000000000000000e+00
ITEM: ATOMS type x y z vx vy vz radius id
1 0.00265124 0.0125 0.00207455 0.801436 0 -1.6492 0.00125 1
1 0.0143294 0.0125 0.00322672 -0.397889 0 -1.35423 0.00125 2
ITEM: TIMESTEP
390
ITEM: NUMBER OF ATOMS
2
ITEM: BOX BOUNDS pp pp ff
0.0000000000000000e+00 1.1842500000000000e-01
0.0000000000000000e+00 1.1842500000000000e-01
-5.0000000000000000e+00 5.0000000000000000e+00
ITEM: ATOMS type x y z vx vy vz radius id
1 0.00268503 0.0125 0.002005 0.801436 0 -1.64961 0.00125 1
1 0.0143126 0.0125 0.00316961 -0.397889 0 -1.35465 0.00125 2
ITEM: TIMESTEP
400
ITEM: NUMBER OF ATOMS
2
ITEM: BOX BOUNDS pp pp ff
0.0000000000000000e+00 1.1842500000000000e-01
0.0000000000000000e+00 1.1842500000000000e-01
-5.0000000000000000e+00 5.0000000000000000e+00
ITEM: ATOMS type x y z vx vy vz radius id
1 0.00271883 0.0125 0.00193544 0.801436 0 -1.65003 0.00125 1
1 0.0142959 0.0125 0.00311248 -0.397889 0 -1.35506 0.00125 2
ITEM: TIMESTEP
410
ITEM: NUMBER OF ATOMS
2
ITEM: BOX BOUNDS pp pp ff
0.0000000000000000e+00 1.1842500000000000e-01
0.0000000000000000e+00 1.1842500000000000e-01
-5.0000000000000000e+00 5.0000000000000000e+00
ITEM: ATOMS type x y z vx vy vz radius id
1 0.00275262 0.0125 0.00186585 0.801436 0 -1.65044 0.00125 1
1 0.0142791 0.0125 0.00305533 -0.397889 0 -1.35547 0.00125 2
ITEM: TIMESTEP
420
ITEM: NUMBER OF ATOMS
2
ITEM: BOX BOUNDS pp pp ff
0.0000000000000000e+00 1.1842500000000000e-01
0.0000000000000000e+00 1.1842500000000000e-01
-5.0000000000000000e+00 5.0000000000000000e+00
ITEM: ATOMS type x y z vx vy vz radius id
1 0.00278641 0.0125 0.00179625 0.801436 0 -1.65085 0.00125 1
1 0.0142623 0.0125 0.00299817 -0.397889 0 -1.35589 0.00125 2
ITEM: TIMESTEP
430
ITEM: NUMBER OF ATOMS
2
ITEM: BOX BOUNDS pp pp ff
0.0000000000000000e+00 1.1842500000000000e-01
0.0000000000000000e+00 1.1842500000000000e-01
-5.0000000000000000e+00 5.0000000000000000e+00
ITEM: ATOMS type x y z vx vy vz radius id
1 0.0028202 0.0125 0.00172664 0.801436 0 -1.65127 0.00125 1
1 0.0142455 0.0125 0.00294099 -0.397889 0 -1.3563 0.00125 2
ITEM: TIMESTEP
440
ITEM: NUMBER OF ATOMS
2
ITEM: BOX BOUNDS pp pp ff
0.0000000000000000e+00 1.1842500000000000e-01
0.0000000000000000e+00 1.1842500000000000e-01
-5.0000000000000000e+00 5.0000000000000000e+00
ITEM: ATOMS type x y z vx vy vz radius id
1 0.002854 0.0125 0.001657 0.801436 0 -1.65168 0.00125 1
1 0.0142287 0.0125 0.00288379 -0.397889 0 -1.35671 0.00125 2
ITEM: TIMESTEP
450
ITEM: NUMBER OF ATOMS
2
ITEM: BOX BOUNDS pp pp ff
0.0000000000000000e+00 1.1842500000000000e-01
0.0000000000000000e+00 1.1842500000000000e-01
-5.0000000000000000e+00 5.0000000000000000e+00
ITEM: ATOMS type x y z vx vy vz radius id
1 0.00288779 0.0125 0.00158735 0.801436 0 -1.65209 0.00125 1
1 0.014212 0.0125 0.00282658 -0.397889 0 -1.35712 0.00125 2
ITEM: TIMESTEP
460
ITEM: NUMBER OF ATOMS
2
ITEM: BOX BOUNDS pp pp ff
0.0000000000000000e+00 1.1842500000000000e-01
0.0000000000000000e+00 1.1842500000000000e-01
-5.0000000000000000e+00 5.0000000000000000e+00
ITEM: ATOMS type x y z vx vy vz radius id
1 0.00292158 0.0125 0.00151768 0.801436 0 -1.65251 0.00125 1
1 0.0141952 0.0125 0.00276935 -0.397889 0 -1.35754 0.00125 2
ITEM: TIMESTEP
470
ITEM: NUMBER OF ATOMS
2
ITEM: BOX BOUNDS pp pp ff
0.0000000000000000e+00 1.1842500000000000e-01
0.0000000000000000e+00 1.1842500000000000e-01
-5.0000000000000000e+00 5.0000000000000000e+00
ITEM: ATOMS type x y z vx vy vz radius id
1 0.00295538 0.0125 0.00144799 0.801436 0 -1.65292 0.00125 1
1 0.0141784 0.0125 0.0027121 -0.397889 0 -1.35795 0.00125 2
ITEM: TIMESTEP
480
ITEM: NUMBER OF ATOMS
2
ITEM: BOX BOUNDS pp pp ff
0.0000000000000000e+00 1.1842500000000000e-01
0.0000000000000000e+00 1.1842500000000000e-01
-5.0000000000000000e+00 5.0000000000000000e+00
ITEM: ATOMS type x y z vx vy vz radius id
1 0.00298917 0.0125 0.00137829 0.801436 0 -1.65333 0.00125 1
1 0.0141616 0.0125 0.00265483 -0.397889 0 -1.35836 0.00125 2
ITEM: TIMESTEP
490
ITEM: NUMBER OF ATOMS
2
ITEM: BOX BOUNDS pp pp ff
0.0000000000000000e+00 1.1842500000000000e-01
0.0000000000000000e+00 1.1842500000000000e-01
-5.0000000000000000e+00 5.0000000000000000e+00
ITEM: ATOMS type x y z vx vy vz radius id
1 0.00302296 0.0125 0.00130856 0.801436 0 -1.65375 0.00125 1
1 0.0141449 0.0125 0.00259755 -0.397889 0 -1.35878 0.00125 2
ITEM: TIMESTEP
500
ITEM: NUMBER OF ATOMS
2
ITEM: BOX BOUNDS pp pp ff
0.0000000000000000e+00 1.1842500000000000e-01
0.0000000000000000e+00 1.1842500000000000e-01
-5.0000000000000000e+00 5.0000000000000000e+00
ITEM: ATOMS type x y z vx vy vz radius id
1 0.00305418 0.0125 0.00124406 0.604161 0 -1.25725 0.00125 1
1 0.0141281 0.0125 0.00254024 -0.397889 0 -1.35919 0.00125 2
ITEM: TIMESTEP
510
ITEM: NUMBER OF ATOMS
2
ITEM: BOX BOUNDS pp pp ff
0.0000000000000000e+00 1.1842500000000000e-01
0.0000000000000000e+00 1.1842500000000000e-01
-5.0000000000000000e+00 5.0000000000000000e+00
ITEM: ATOMS type x y z vx vy vz radius id
1 0.00306903 0.0125 0.00121421 0.115632 0 -0.071158 0.00125 1
1 0.0141113 0.0125 0.00248292 -0.397889 0 -1.3596 0.00125 2
ITEM: TIMESTEP
520
ITEM: NUMBER OF ATOMS
2
ITEM: BOX BOUNDS pp pp ff
0.0000000000000000e+00 1.1842500000000000e-01
0.0000000000000000e+00 1.1842500000000000e-01
-5.0000000000000000e+00 5.0000000000000000e+00
ITEM: ATOMS type x y z vx vy vz radius id
1 0.00307281 0.0125 0.00123762 0.198256 0 1.089 0.00125 1
1 0.0140945 0.0125 0.00242559 -0.397889 0 -1.36002 0.00125 2
ITEM: TIMESTEP
530
ITEM: NUMBER OF ATOMS
2
ITEM: BOX BOUNDS pp pp ff
0.0000000000000000e+00 1.1842500000000000e-01
0.0000000000000000e+00 1.1842500000000000e-01
-5.0000000000000000e+00 5.0000000000000000e+00
ITEM: ATOMS type x y z vx vy vz radius id
1 0.00308693 0.0125 0.00129505 0.404759 0 1.50159 0.00125 1
1 0.0140777 0.0125 0.00236823 -0.397889 0 -1.36043 0.00125 2
ITEM: TIMESTEP
540
ITEM: NUMBER OF ATOMS
2
ITEM: BOX BOUNDS pp pp ff
0.0000000000000000e+00 1.1842500000000000e-01
0.0000000000000000e+00 1.1842500000000000e-01
-5.0000000000000000e+00 5.0000000000000000e+00
ITEM: ATOMS type x y z vx vy vz radius id
1 0.00310413 0.0125 0.00135845 0.408149 0 1.50263 0.00125 1
1 0.014061 0.0125 0.00231086 -0.397889 0 -1.36084 0.00125 2
ITEM: TIMESTEP
550
ITEM: NUMBER OF ATOMS
2
ITEM: BOX BOUNDS pp pp ff
0.0000000000000000e+00 1.1842500000000000e-01
0.0000000000000000e+00 1.1842500000000000e-01
-5.0000000000000000e+00 5.0000000000000000e+00
ITEM: ATOMS type x y z vx vy vz radius id
1 0.00312134 0.0125 0.0014218 0.408149 0 1.50222 0.00125 1
1 0.0140442 0.0125 0.00225347 -0.397889 0 -1.36126 0.00125 2
ITEM: TIMESTEP
560
ITEM: NUMBER OF ATOMS
2
ITEM: BOX BOUNDS pp pp ff
0.0000000000000000e+00 1.1842500000000000e-01
0.0000000000000000e+00 1.1842500000000000e-01
-5.0000000000000000e+00 5.0000000000000000e+00
ITEM: ATOMS type x y z vx vy vz radius id
1 0.00313855 0.0125 0.00148513 0.408149 0 1.50181 0.00125 1
1 0.0140274 0.0125 0.00219607 -0.397889 0 -1.36167 0.00125 2
ITEM: TIMESTEP
570
ITEM: NUMBER OF ATOMS
2
ITEM: BOX BOUNDS pp pp ff
0.0000000000000000e+00 1.1842500000000000e-01
0.0000000000000000e+00 1.1842500000000000e-01
-5.0000000000000000e+00 5.0000000000000000e+00
ITEM: ATOMS type x y z vx vy vz radius id
1 0.00315576 0.0125 0.00154844 0.408149 0 1.50139 0.00125 1
1 0.0140106 0.0125 0.00213864 -0.397889 0 -1.36208 0.00125 2
ITEM: TIMESTEP
580
ITEM: NUMBER OF ATOMS
2
ITEM: BOX BOUNDS pp pp ff
0.0000000000000000e+00 1.1842500000000000e-01
0.0000000000000000e+00 1.1842500000000000e-01
-5.0000000000000000e+00 5.0000000000000000e+00
ITEM: ATOMS type x y z vx vy vz radius id
1 0.00317297 0.0125 0.00161174 0.408149 0 1.50098 0.00125 1
1 0.0139939 0.0125 0.0020812 -0.397889 0 -1.3625 0.00125 2
ITEM: TIMESTEP
590
ITEM: NUMBER OF ATOMS
2
ITEM: BOX BOUNDS pp pp ff
0.0000000000000000e+00 1.1842500000000000e-01
0.0000000000000000e+00 1.1842500000000000e-01
-5.0000000000000000e+00 5.0000000000000000e+00
ITEM: ATOMS type x y z vx vy vz radius id
1 0.00319018 0.0125 0.00167502 0.408149 0 1.50057 0.00125 1
1 0.0139771 0.0125 0.00202374 -0.397889 0 -1.36291 0.00125 2
ITEM: TIMESTEP
600
ITEM: NUMBER OF ATOMS
2
ITEM: BOX BOUNDS pp pp ff
0.0000000000000000e+00 1.1842500000000000e-01
0.0000000000000000e+00 1.1842500000000000e-01
-5.0000000000000000e+00 5.0000000000000000e+00
ITEM: ATOMS type x y z vx vy vz radius id
1 0.00320739 0.0125 0.00173829 0.408149 0 1.50016 0.00125 1
1 0.0139603 0.0125 0.00196627 -0.397889 0 -1.36332 0.00125 2
ITEM: TIMESTEP
610
ITEM: NUMBER OF ATOMS
2
ITEM: BOX BOUNDS pp pp ff
0.0000000000000000e+00 1.1842500000000000e-01
0.0000000000000000e+00 1.1842500000000000e-01
-5.0000000000000000e+00 5.0000000000000000e+00
ITEM: ATOMS type x y z vx vy vz radius id
1 0.0032246 0.0125 0.00180153 0.408149 0 1.49974 0.00125 1
1 0.0139435 0.0125 0.00190877 -0.397889 0 -1.36374 0.00125 2
ITEM: TIMESTEP
620
ITEM: NUMBER OF ATOMS
2
ITEM: BOX BOUNDS pp pp ff
0.0000000000000000e+00 1.1842500000000000e-01
0.0000000000000000e+00 1.1842500000000000e-01
-5.0000000000000000e+00 5.0000000000000000e+00
ITEM: ATOMS type x y z vx vy vz radius id
1 0.00324181 0.0125 0.00186476 0.408149 0 1.49933 0.00125 1
1 0.0139268 0.0125 0.00185126 -0.397889 0 -1.36415 0.00125 2
ITEM: TIMESTEP
630
ITEM: NUMBER OF ATOMS
2
ITEM: BOX BOUNDS pp pp ff
0.0000000000000000e+00 1.1842500000000000e-01
0.0000000000000000e+00 1.1842500000000000e-01
-5.0000000000000000e+00 5.0000000000000000e+00
ITEM: ATOMS type x y z vx vy vz radius id
1 0.00325902 0.0125 0.00192797 0.408149 0 1.49892 0.00125 1
1 0.01391 0.0125 0.00179373 -0.397889 0 -1.36456 0.00125 2
ITEM: TIMESTEP
640
ITEM: NUMBER OF ATOMS
2
ITEM: BOX BOUNDS pp pp ff
0.0000000000000000e+00 1.1842500000000000e-01
0.0000000000000000e+00 1.1842500000000000e-01
-5.0000000000000000e+00 5.0000000000000000e+00
ITEM: ATOMS type x y z vx vy vz radius id
1 0.00327623 0.0125 0.00199116 0.408149 0 1.4985 0.00125 1
1 0.0138932 0.0125 0.00173619 -0.397889 0 -1.36498 0.00125 2
ITEM: TIMESTEP
650
ITEM: NUMBER OF ATOMS
2
ITEM: BOX BOUNDS pp pp ff
0.0000000000000000e+00 1.1842500000000000e-01
0.0000000000000000e+00 1.1842500000000000e-01
-5.0000000000000000e+00 5.0000000000000000e+00
ITEM: ATOMS type x y z vx vy vz radius id
1 0.00329344 0.0125 0.00205434 0.408149 0 1.49809 0.00125 1
1 0.0138764 0.0125 0.00167862 -0.397889 0 -1.36539 0.00125 2
ITEM: TIMESTEP
660
ITEM: NUMBER OF ATOMS
2
ITEM: BOX BOUNDS pp pp ff
0.0000000000000000e+00 1.1842500000000000e-01
0.0000000000000000e+00 1.1842500000000000e-01
-5.0000000000000000e+00 5.0000000000000000e+00
ITEM: ATOMS type x y z vx vy vz radius id
1 0.00331065 0.0125 0.0021175 0.408149 0 1.49768 0.00125 1
1 0.0138596 0.0125 0.00162104 -0.397889 0 -1.3658 0.00125 2
ITEM: TIMESTEP
670
ITEM: NUMBER OF ATOMS
2
ITEM: BOX BOUNDS pp pp ff
0.0000000000000000e+00 1.1842500000000000e-01
0.0000000000000000e+00 1.1842500000000000e-01
-5.0000000000000000e+00 5.0000000000000000e+00
ITEM: ATOMS type x y z vx vy vz radius id
1 0.00332786 0.0125 0.00218064 0.408149 0 1.49726 0.00125 1
1 0.0138429 0.0125 0.00156344 -0.397889 0 -1.36622 0.00125 2
ITEM: TIMESTEP
680
ITEM: NUMBER OF ATOMS
2
ITEM: BOX BOUNDS pp pp ff
0.0000000000000000e+00 1.1842500000000000e-01
0.0000000000000000e+00 1.1842500000000000e-01
-5.0000000000000000e+00 5.0000000000000000e+00
ITEM: ATOMS type x y z vx vy vz radius id
1 0.00334507 0.0125 0.00224376 0.408149 0 1.49685 0.00125 1
1 0.0138261 0.0125 0.00150583 -0.397889 0 -1.36663 0.00125 2
ITEM: TIMESTEP
690
ITEM: NUMBER OF ATOMS
2
ITEM: BOX BOUNDS pp pp ff
0.0000000000000000e+00 1.1842500000000000e-01
0.0000000000000000e+00 1.1842500000000000e-01
-5.0000000000000000e+00 5.0000000000000000e+00
ITEM: ATOMS type x y z vx vy vz radius id
1 0.00336228 0.0125 0.00230687 0.408149 0 1.49644 0.00125 1
1 0.0138093 0.0125 0.0014482 -0.397889 0 -1.36704 0.00125 2
ITEM: TIMESTEP
700
ITEM: NUMBER OF ATOMS
2
ITEM: BOX BOUNDS pp pp ff
0.0000000000000000e+00 1.1842500000000000e-01
0.0000000000000000e+00 1.1842500000000000e-01
-5.0000000000000000e+00 5.0000000000000000e+00
ITEM: ATOMS type x y z vx vy vz radius id
1 0.00337948 0.0125 0.00236996 0.408149 0 1.49602 0.00125 1
1 0.0137925 0.0125 0.00139054 -0.397889 0 -1.36746 0.00125 2
ITEM: TIMESTEP
710
ITEM: NUMBER OF ATOMS
2
ITEM: BOX BOUNDS pp pp ff
0.0000000000000000e+00 1.1842500000000000e-01
0.0000000000000000e+00 1.1842500000000000e-01
-5.0000000000000000e+00 5.0000000000000000e+00
ITEM: ATOMS type x y z vx vy vz radius id
1 0.00339669 0.0125 0.00243303 0.408149 0 1.49561 0.00125 1
1 0.013776 0.0125 0.00133346 -0.357445 0 -1.28631 0.00125 2
ITEM: TIMESTEP
720
ITEM: NUMBER OF ATOMS
2
ITEM: BOX BOUNDS pp pp ff
0.0000000000000000e+00 1.1842500000000000e-01
0.0000000000000000e+00 1.1842500000000000e-01
-5.0000000000000000e+00 5.0000000000000000e+00
ITEM: ATOMS type x y z vx vy vz radius id
1 0.0034139 0.0125 0.00249609 0.408149 0 1.4952 0.00125 1
1 0.0137668 0.0125 0.00129118 -0.0341354 0 -0.602216 0.00125 2
ITEM: TIMESTEP
730
ITEM: NUMBER OF ATOMS
2
ITEM: BOX BOUNDS pp pp ff
0.0000000000000000e+00 1.1842500000000000e-01
0.0000000000000000e+00 1.1842500000000000e-01
-5.0000000000000000e+00 5.0000000000000000e+00
ITEM: ATOMS type x y z vx vy vz radius id
1 0.00343111 0.0125 0.00255912 0.408149 0 1.49478 0.00125 1
1 0.0137713 0.0125 0.0012883 0.152417 0 0.466077 0.00125 2
ITEM: TIMESTEP
740
ITEM: NUMBER OF ATOMS
2
ITEM: BOX BOUNDS pp pp ff
0.0000000000000000e+00 1.1842500000000000e-01
0.0000000000000000e+00 1.1842500000000000e-01
-5.0000000000000000e+00 5.0000000000000000e+00
ITEM: ATOMS type x y z vx vy vz radius id
1 0.00344832 0.0125 0.00262214 0.408149 0 1.49437 0.00125 1
1 0.0137725 0.0125 0.00132517 -0.10398 0 1.17514 0.00125 2
ITEM: TIMESTEP
750
ITEM: NUMBER OF ATOMS
2
ITEM: BOX BOUNDS pp pp ff
0.0000000000000000e+00 1.1842500000000000e-01
0.0000000000000000e+00 1.1842500000000000e-01
-5.0000000000000000e+00 5.0000000000000000e+00
ITEM: ATOMS type x y z vx vy vz radius id
1 0.00346553 0.0125 0.00268514 0.408149 0 1.49396 0.00125 1
1 0.0137661 0.0125 0.00137876 -0.166716 0 1.29673 0.00125 2
ITEM: TIMESTEP
760
ITEM: NUMBER OF ATOMS
2
ITEM: BOX BOUNDS pp pp ff
0.0000000000000000e+00 1.1842500000000000e-01
0.0000000000000000e+00 1.1842500000000000e-01
-5.0000000000000000e+00 5.0000000000000000e+00
ITEM: ATOMS type x y z vx vy vz radius id
1 0.00348274 0.0125 0.00274813 0.408149 0 1.49354 0.00125 1
1 0.0137591 0.0125 0.00143343 -0.166716 0 1.29632 0.00125 2
ITEM: TIMESTEP
770
ITEM: NUMBER OF ATOMS
2
ITEM: BOX BOUNDS pp pp ff
0.0000000000000000e+00 1.1842500000000000e-01
0.0000000000000000e+00 1.1842500000000000e-01
-5.0000000000000000e+00 5.0000000000000000e+00
ITEM: ATOMS type x y z vx vy vz radius id
1 0.00349995 0.0125 0.00281109 0.408149 0 1.49313 0.00125 1
1 0.013752 0.0125 0.00148808 -0.166716 0 1.29591 0.00125 2
ITEM: TIMESTEP
780
ITEM: NUMBER OF ATOMS
2
ITEM: BOX BOUNDS pp pp ff
0.0000000000000000e+00 1.1842500000000000e-01
0.0000000000000000e+00 1.1842500000000000e-01
-5.0000000000000000e+00 5.0000000000000000e+00
ITEM: ATOMS type x y z vx vy vz radius id
1 0.00351716 0.0125 0.00287404 0.408149 0 1.49272 0.00125 1
1 0.013745 0.0125 0.00154271 -0.166716 0 1.29549 0.00125 2
ITEM: TIMESTEP
790
ITEM: NUMBER OF ATOMS
2
ITEM: BOX BOUNDS pp pp ff
0.0000000000000000e+00 1.1842500000000000e-01
0.0000000000000000e+00 1.1842500000000000e-01
-5.0000000000000000e+00 5.0000000000000000e+00
ITEM: ATOMS type x y z vx vy vz radius id
1 0.00353437 0.0125 0.00293698 0.408149 0 1.4923 0.00125 1
1 0.013738 0.0125 0.00159733 -0.166716 0 1.29508 0.00125 2
ITEM: TIMESTEP
800
ITEM: NUMBER OF ATOMS
2
ITEM: BOX BOUNDS pp pp ff
0.0000000000000000e+00 1.1842500000000000e-01
0.0000000000000000e+00 1.1842500000000000e-01
-5.0000000000000000e+00 5.0000000000000000e+00
ITEM: ATOMS type x y z vx vy vz radius id
1 0.00355158 0.0125 0.00299989 0.408149 0 1.49189 0.00125 1
1 0.013731 0.0125 0.00165193 -0.166716 0 1.29467 0.00125 2
ITEM: TIMESTEP
810
ITEM: NUMBER OF ATOMS
2
ITEM: BOX BOUNDS pp pp ff
0.0000000000000000e+00 1.1842500000000000e-01
0.0000000000000000e+00 1.1842500000000000e-01